<?xml version="1.0" encoding="ISO-8859-1"?>
<modeling>
 <generator>
  <i name="program" type="string">vasp</i>
  <i name="version" type="string">4.6.36 </i>
  <i name="subversion" type="string">17Feb09 complex  parallel</i>
  <i name="platform" type="string">LinuxPgi</i>
  <i name="date" type="string">2013 05 17</i>
  <i name="time" type="string">23:29:20</i>
 </generator>
 <incar>
  <i type="string" name="SYSTEM"> H2O</i>
  <i type="int" name="ISTART">     0</i>
  <i type="string" name="PREC">high</i>
  <i type="int" name="IALGO">    48</i>
  <i type="int" name="MAXMIX">    50</i>
  <i name="BMIX">      2.00000000</i>
  <i type="int" name="ICHARG">     2</i>
  <i type="int" name="NELMIN">     4</i>
  <i type="int" name="IBRION">     0</i>
  <i type="int" name="NSW">  2000</i>
  <i type="int" name="ISIF">     2</i>
  <i type="int" name="ISYM">     0</i>
  <i type="int" name="NBLOCK">     1</i>
  <i type="int" name="KBLOCK">   100</i>
  <i name="POTIM">      0.19350400</i>
  <i name="SMASS">     -3.00000000</i>
  <i type="string" name="LREAL"> A</i>
  <i type="int" name="ISMEAR">    -1</i>
  <i name="SIGMA">      0.02843723</i>
  <i type="int" name="NWRITE">     3</i>
 </incar>
 <kpoints>
  <generation param="Monkhorst-Pack">
   <v type="int" name="divisions">       1       1       1</v>
   <v name="usershift">      0.00000000       0.00000000       0.00000000 </v>
   <v name="genvec1">      1.00000000       0.00000000       0.00000000 </v>
   <v name="genvec2">      0.00000000       1.00000000       0.00000000 </v>
   <v name="genvec3">      0.00000000       0.00000000       1.00000000 </v>
   <v name="shift">      0.00000000       0.00000000       0.00000000 </v>
  </generation>
  <varray name="kpointlist" >
   <v>       0.00000000       0.00000000       0.00000000 </v>
  </varray>
  <varray name="weights" >
   <v>       1.00000000 </v>
  </varray>
 </kpoints>
 <parameters>
  <separator name="general" >
   <i type="string" name="SYSTEM">H2O</i>
   <i type="logical" name="LCOMPAT"> F  </i>
  </separator>
  <separator name="electronic" >
   <i type="string" name="PREC">high</i>
   <i name="ENMAX">    500.00000000</i>
   <i name="ENAUG">    605.39200000</i>
   <i name="EDIFF">      0.00010000</i>
   <i type="int" name="IALGO">    48</i>
   <i type="int" name="IWAVPR">    12</i>
   <i type="int" name="NBANDS">     8</i>
   <i name="NELECT">      8.00000000</i>
   <separator name="electronic smearing" >
    <i type="int" name="ISMEAR">    -1</i>
    <i name="SIGMA">      0.02843723</i>
   </separator>
   <separator name="electronic projectors" >
    <i type="logical" name="LREAL"> T  </i>
    <v name="ROPT">     -0.00040000     -0.00040000</v>
    <i type="int" name="LMAXPAW">  -100</i>
    <i type="int" name="LMAXMIX">     2</i>
   </separator>
   <separator name="electronic startup" >
    <i type="int" name="ISTART">     0</i>
    <i type="int" name="ICHARG">     2</i>
    <i type="int" name="INIWAV">     1</i>
   </separator>
   <separator name="electronic spin" >
    <i type="int" name="ISPIN">     1</i>
    <i type="logical" name="LNONCOLLINEAR"> F  </i>
    <v name="MAGMOM">      1.00000000      1.00000000      1.00000000</v>
    <i name="NUPDOWN">     -1.00000000</i>
    <i type="logical" name="LSORBIT"> F  </i>
    <v name="SAXIS">      0.00000000      0.00000000      1.00000000</v>
    <i type="logical" name="LSPIRAL"> F  </i>
    <v name="QSPIRAL">      0.00000000      0.00000000      0.00000000</v>
    <i type="logical" name="LZEROZ"> F  </i>
   </separator>
   <separator name="electronic exchange-correlation" >
    <i type="string" name="GGA">--</i>
    <i type="int" name="VOSKOWN">     0</i>
    <i type="logical" name="LASPH"> F  </i>
    <i type="logical" name="LMETAGGA"> F  </i>
    <i type="string" name="GGA2">--</i>
   </separator>
   <separator name="electronic convergence" >
    <i type="int" name="NELM">    60</i>
    <i type="int" name="NELMDL">   -12</i>
    <i type="int" name="NELMIN">     4</i>
    <i name="ENINI">    500.00000000</i>
    <separator name="electronic convergence detail" >
     <i type="logical" name="LDIAG"> T  </i>
     <i name="WEIMIN">      0.00100000</i>
     <i name="EBREAK">      0.00000313</i>
     <i name="DEPER">      0.30000000</i>
     <i type="int" name="NRMM">     4</i>
     <i name="TIME">      0.10000000</i>
    </separator>
   </separator>
   <separator name="electronic mixer" >
    <i name="AMIX">      0.40000000</i>
    <i name="BMIX">      2.00000000</i>
    <i name="AMIN">      0.10000000</i>
    <i name="AMIX_MAG">      1.60000000</i>
    <i name="BMIX_MAG">      2.00000000</i>
    <separator name="electronic mixer details" >
     <i type="int" name="IMIX">     4</i>
     <i type="int" name="MAXMIX">    50</i>
     <i name="WC">    100.00000000</i>
     <i type="int" name="INIMIX">     1</i>
     <i type="int" name="MIXPRE">     1</i>
     <i type="int" name="MREMOVE">     5</i>
    </separator>
   </separator>
   <separator name="electronic dipolcorrection" >
    <i type="int" name="IDIPOL">     0</i>
    <i type="logical" name="LDIPOL"> F  </i>
    <v name="DIPOL">   -100.00000000</v>
    <i name="EFIELD">      0.00000000</i>
   </separator>
  </separator>
  <separator name="grids" >
   <i type="int" name="NGX">    80</i>
   <i type="int" name="NGY">    80</i>
   <i type="int" name="NGZ">    80</i>
   <i type="int" name="NGXF">   108</i>
   <i type="int" name="NGYF">   108</i>
   <i type="int" name="NGZF">   108</i>
   <i type="logical" name="ADDGRID"> F  </i>
  </separator>
  <separator name="ionic" >
   <i type="int" name="NSW">  2000</i>
   <i type="int" name="IBRION">     0</i>
   <i type="int" name="ISIF">     2</i>
   <i name="PSTRESS">      0.00000000</i>
   <i name="EDIFFG">      0.00100000</i>
   <i type="int" name="NFREE">     0</i>
   <i name="POTIM">      0.19350400</i>
   <i name="SMASS">     -3.00000000</i>
  </separator>
  <separator name="ionic md" >
   <i name="TEBEG">      0.00010000</i>
   <i name="TEEND">      0.00010000</i>
   <i type="int" name="NBLOCK">     1</i>
   <i type="int" name="KBLOCK">   100</i>
   <i type="int" name="NPACO">   256</i>
   <i name="APACO">     16.00000000</i>
  </separator>
  <separator name="symmetry" >
   <i type="int" name="ISYM">     0</i>
   <i name="SYMPREC">      0.00001000</i>
  </separator>
  <separator name="dos" >
   <i type="logical" name="LORBIT"> T  </i>
   <v name="RWIGS">     -1.00000000     -1.00000000</v>
   <i type="int" name="NEDOS">   301</i>
   <i name="EMIN">     10.00000000</i>
   <i name="EMAX">    -10.00000000</i>
  </separator>
  <separator name="writing" >
   <i type="int" name="NWRITE">     3</i>
   <i type="logical" name="LWAVE"> T  </i>
   <i type="logical" name="LCHARG"> T  </i>
   <i type="logical" name="LPARD"> F  </i>
   <i type="logical" name="LVTOT"> F  </i>
   <i type="logical" name="LELF"> F  </i>
   <i type="logical" name="LOPTICS"> F  </i>
   <v name="STM">      0.00000000      0.00000000      0.00000000      0.00000000      0.00000000</v>
  </separator>
  <separator name="performance" >
   <i type="int" name="NPAR">     8</i>
   <i type="int" name="NSIM">     4</i>
   <i type="int" name="NBLK">   256</i>
   <i type="logical" name="LPLANE"> T  </i>
   <i type="logical" name="LCRITICAL_MEM"> F  </i>
   <i type="logical" name="LSCALAPACK"> F  </i>
   <i type="logical" name="LSCALU"> F  </i>
   <i type="logical" name="LASYNC"> F  </i>
  </separator>
  <separator name="miscellaneous" >
   <i type="int" name="IDIOT">     3</i>
   <i type="logical" name="LMUSIC"> F  </i>
   <v name="POMASS">     16.00000000      1.00000000</v>
   <i type="logical" name="LCORR"> T  </i>
  </separator>
  <i type="logical" name="LREAL_COMPAT"> F  </i>
  <i type="logical" name="GGA_COMPAT"> T  </i>
  <i type="logical" name="LBERRY"> F  </i>
  <i type="int" name="ICORELEVEL">     0</i>
  <i type="logical" name="LDAU"> F  </i>
  <i type="int" name="I_CONSTRAINED_M">     0</i>
 </parameters>
 <atominfo>
  <atoms>       3</atoms>
  <types>       2</types>
  <array name="atoms" >
   <dimension dim="1">ion</dimension>
   <field type="string">element</field>
   <field type="int">atomtype</field>
   <set>
    <rc><c>O </c><c>   1</c></rc>
    <rc><c>H </c><c>   2</c></rc>
    <rc><c>H </c><c>   2</c></rc>
   </set>
  </array>
  <array name="atomtypes" >
   <dimension dim="1">type</dimension>
   <field type="int">atomspertype</field>
   <field type="string">element</field>
   <field>mass</field>
   <field>valence</field>
   <field type="string">pseudopotential</field>
   <set>
    <rc><c>   1</c><c>O </c><c>     16.00000000</c><c>      6.00000000</c><c> PAW_PBE O 08Apr2002                    </c></rc>
    <rc><c>   2</c><c>H </c><c>      1.00000000</c><c>      1.00000000</c><c> PAW_PBE H 15Jun2001                    </c></rc>
   </set>
  </array>
 </atominfo>
 <structure name="initialpos" >
  <crystal>
   <varray name="basis" >
    <v>      10.00000000       0.00000000       0.00000000 </v>
    <v>       0.00000000      10.00000000       0.00000000 </v>
    <v>       0.00000000       0.00000000      10.00000000 </v>
   </varray>
   <i name="volume">   1000.00000000</i>
   <varray name="rec_basis" >
    <v>       0.10000000       0.00000000       0.00000000 </v>
    <v>       0.00000000       0.10000000       0.00000000 </v>
    <v>       0.00000000       0.00000000       0.10000000 </v>
   </varray>
  </crystal>
  <varray name="positions" >
   <v>       0.41433300       0.62583900       0.53305400 </v>
   <v>       0.32220300       0.59237400       0.51826200 </v>
   <v>       0.47134400       0.54527900       0.52632300 </v>
  </varray>
  <varray name="velocities" >
   <v>       0.00000000      -0.00000002      -0.00000002 </v>
   <v>      -0.00000009      -0.00000007       0.00000023 </v>
   <v>       0.00000014       0.00000031       0.00000004 </v>
  </varray>
 </structure>
 <calculation>
  <scstep>
   <time name="diag">    0.10    0.20</time>
   <time name="diis">    0.20    0.24</time>
   <time name="orth">    0.00    0.00</time>
   <time name="total">    0.71    0.85</time>
   <energy>
    <i name="alphaZ">      0.22422278</i>
    <i name="ewald">     53.38332005</i>
    <i name="hartreedc">   -415.14693662</i>
    <i name="XCdc">     32.16042513</i>
    <i name="pawpsdc">    247.56105404</i>
    <i name="pawaedc">   -249.42875511</i>
    <i name="eentropy">     -0.00032185</i>
    <i name="bandstr">     -0.78371436</i>
    <i name="atom">    457.32929435</i>
    <i name="e_fr_energy">    125.29858841</i>
    <i name="e_wo_entrp">    125.29891025</i>
    <i name="e_0_energy">    125.29874933</i>
   </energy>
  </scstep>
  <scstep>
   <time name="diag">    0.09    0.09</time>
   <time name="diis">    0.19    0.19</time>
   <time name="orth">    0.00    0.00</time>
   <time name="total">    0.29    0.30</time>
   <energy>
    <i name="e_fr_energy">     98.32778626</i>
    <i name="e_wo_entrp">     98.32780592</i>
    <i name="e_0_energy">     98.32779609</i>
   </energy>
  </scstep>
  <scstep>
   <time name="diag">    0.09    0.09</time>
   <time name="diis">    0.19    0.19</time>
   <time name="orth">    0.00    0.01</time>
   <time name="total">    0.29    0.30</time>
   <energy>
    <i name="e_fr_energy">     77.59489529</i>
    <i name="e_wo_entrp">     77.59489642</i>
    <i name="e_0_energy">     77.59489586</i>
   </energy>
  </scstep>
  <scstep>
   <time name="diag">    0.09    0.09</time>
   <time name="diis">    0.21    0.21</time>
   <time name="orth">    0.00    0.00</time>
   <time name="total">    0.30    0.37</time>
   <energy>
    <i name="e_fr_energy">     50.69201959</i>
    <i name="e_wo_entrp">     50.69759159</i>
    <i name="e_0_energy">     50.69480559</i>
   </energy>
  </scstep>
  <scstep>
   <time name="diag">    0.10    0.10</time>
   <time name="diis">    0.18    0.19</time>
   <time name="orth">    0.00    0.00</time>
   <time name="total">    0.29    0.29</time>
   <energy>
    <i name="e_fr_energy">     11.14236225</i>
    <i name="e_wo_entrp">     11.14236225</i>
    <i name="e_0_energy">     11.14236225</i>
   </energy>
  </scstep>
  <scstep>
   <time name="diag">    0.09    0.09</time>
   <time name="diis">    0.19    0.19</time>
   <time name="orth">    0.00    0.00</time>
   <time name="total">    0.29    0.36</time>
   <energy>
    <i name="e_fr_energy">     -9.79027141</i>
    <i name="e_wo_entrp">     -9.79027141</i>
    <i name="e_0_energy">     -9.79027141</i>
   </energy>
  </scstep>
  <scstep>
   <time name="diag">    0.09    0.09</time>
   <time name="diis">    0.19    0.19</time>
   <time name="orth">    0.00    0.00</time>
   <time name="total">    0.29    0.29</time>
   <energy>
    <i name="e_fr_energy">    -15.26331390</i>
    <i name="e_wo_entrp">    -15.26331390</i>
    <i name="e_0_energy">    -15.26331390</i>
   </energy>
  </scstep>
  <scstep>
   <time name="diag">    0.09    0.09</time>
   <time name="diis">    0.20    0.20</time>
   <time name="orth">    0.00    0.00</time>
   <time name="total">    0.29    0.35</time>
   <energy>
    <i name="e_fr_energy">    -16.00103306</i>
    <i name="e_wo_entrp">    -16.00103306</i>
    <i name="e_0_energy">    -16.00103306</i>
   </energy>
  </scstep>
  <scstep>
   <time name="diag">    0.09    0.09</time>
   <time name="diis">    0.31    0.32</time>
   <time name="orth">    0.00    0.00</time>
   <time name="total">    0.41    0.42</time>
   <energy>
    <i name="e_fr_energy">    -16.17152737</i>
    <i name="e_wo_entrp">    -16.17152737</i>
    <i name="e_0_energy">    -16.17152737</i>
   </energy>
  </scstep>
  <scstep>
   <time name="diag">    0.09    0.09</time>
   <time name="diis">    0.38    0.38</time>
   <time name="orth">    0.00    0.00</time>
   <time name="total">    0.48    0.49</time>
   <energy>
    <i name="e_fr_energy">    -16.18685940</i>
    <i name="e_wo_entrp">    -16.18685940</i>
    <i name="e_0_energy">    -16.18685940</i>
   </energy>
  </scstep>
  <scstep>
   <time name="diag">    0.09    0.09</time>
   <time name="diis">    0.32    0.32</time>
   <time name="orth">    0.00    0.00</time>
   <time name="total">    0.41    0.47</time>
   <energy>
    <i name="e_fr_energy">    -16.18726506</i>
    <i name="e_wo_entrp">    -16.18726506</i>
    <i name="e_0_energy">    -16.18726506</i>
   </energy>
  </scstep>
  <scstep>
   <time name="diag">    0.09    0.09</time>
   <time name="diis">    0.32    0.32</time>
   <time name="orth">    0.00    0.01</time>
   <time name="total">    0.55    0.56</time>
   <energy>
    <i name="e_fr_energy">    -16.18729835</i>
    <i name="e_wo_entrp">    -16.18729835</i>
    <i name="e_0_energy">    -16.18729835</i>
   </energy>
  </scstep>
  <scstep>
   <time name="diag">    0.09    0.10</time>
   <time name="diis">    0.32    0.32</time>
   <time name="orth">    0.00    0.00</time>
   <time name="total">    0.91    0.98</time>
   <energy>
    <i name="e_fr_energy">    -14.59529472</i>
    <i name="e_wo_entrp">    -14.59529472</i>
    <i name="e_0_energy">    -14.59529472</i>
   </energy>
  </scstep>
  <scstep>
   <time name="diag">    0.09    0.09</time>
   <time name="diis">    0.32    0.32</time>
   <time name="orth">    0.00    0.00</time>
   <time name="total">    0.91    0.92</time>
   <energy>
    <i name="e_fr_energy">    -14.32846966</i>
    <i name="e_wo_entrp">    -14.32846966</i>
    <i name="e_0_energy">    -14.32846966</i>
   </energy>
  </scstep>
  <scstep>
   <time name="diag">    0.10    0.10</time>
   <time name="diis">    0.32    0.32</time>
   <time name="orth">    0.00    0.00</time>
   <time name="total">    0.92    0.92</time>
   <energy>
    <i name="e_fr_energy">    -14.18713970</i>
    <i name="e_wo_entrp">    -14.18713970</i>
    <i name="e_0_energy">    -14.18713970</i>
   </energy>
  </scstep>
  <scstep>
   <time name="diag">    0.09    0.09</time>
   <time name="diis">    0.31    0.31</time>
   <time name="orth">    0.00    0.00</time>
   <time name="total">    0.90    0.91</time>
   <energy>
    <i name="e_fr_energy">    -14.16888476</i>
    <i name="e_wo_entrp">    -14.16888476</i>
    <i name="e_0_energy">    -14.16888476</i>
   </energy>
  </scstep>
  <scstep>
   <time name="diag">    0.10    0.10</time>
   <time name="diis">    0.31    0.31</time>
   <time name="orth">    0.00    0.00</time>
   <time name="total">    0.92    0.93</time>
   <energy>
    <i name="e_fr_energy">    -14.17096238</i>
    <i name="e_wo_entrp">    -14.17096238</i>
    <i name="e_0_energy">    -14.17096238</i>
   </energy>
  </scstep>
  <scstep>
   <time name="diag">    0.09    0.09</time>
   <time name="diis">    0.36    0.36</time>
   <time name="orth">    0.00    0.00</time>
   <time name="total">    0.97    0.97</time>
   <energy>
    <i name="e_fr_energy">    -14.18604961</i>
    <i name="e_wo_entrp">    -14.18604961</i>
    <i name="e_0_energy">    -14.18604961</i>
   </energy>
  </scstep>
  <scstep>
   <time name="diag">    0.09    0.09</time>
   <time name="diis">    0.52    0.52</time>
   <time name="orth">    0.00    0.00</time>
   <time name="total">    1.12    1.13</time>
   <energy>
    <i name="e_fr_energy">    -14.19365420</i>
    <i name="e_wo_entrp">    -14.19365420</i>
    <i name="e_0_energy">    -14.19365420</i>
   </energy>
  </scstep>
  <scstep>
   <time name="diag">    0.09    0.09</time>
   <time name="diis">    0.32    0.32</time>
   <time name="orth">    0.00    0.00</time>
   <time name="total">    0.93    0.94</time>
   <energy>
    <i name="e_fr_energy">    -14.20155057</i>
    <i name="e_wo_entrp">    -14.20155057</i>
    <i name="e_0_energy">    -14.20155057</i>
   </energy>
  </scstep>
  <scstep>
   <time name="diag">    0.09    0.09</time>
   <time name="diis">    0.30    0.31</time>
   <time name="orth">    0.00    0.00</time>
   <time name="total">    0.92    0.93</time>
   <energy>
    <i name="e_fr_energy">    -14.20350143</i>
    <i name="e_wo_entrp">    -14.20350143</i>
    <i name="e_0_energy">    -14.20350143</i>
   </energy>
  </scstep>
  <scstep>
   <time name="diag">    0.09    0.09</time>
   <time name="diis">    0.37    0.37</time>
   <time name="orth">    0.00    0.00</time>
   <time name="total">    0.98    0.99</time>
   <energy>
    <i name="e_fr_energy">    -14.20545601</i>
    <i name="e_wo_entrp">    -14.20545601</i>
    <i name="e_0_energy">    -14.20545601</i>
   </energy>
  </scstep>
  <scstep>
   <time name="diag">    0.09    0.09</time>
   <time name="diis">    0.31    0.31</time>
   <time name="orth">    0.00    0.00</time>
   <time name="total">    0.93    0.93</time>
   <energy>
    <i name="e_fr_energy">    -14.20614187</i>
    <i name="e_wo_entrp">    -14.20614187</i>
    <i name="e_0_energy">    -14.20614187</i>
   </energy>
  </scstep>
  <scstep>
   <time name="diag">    0.10    0.10</time>
   <time name="diis">    0.30    0.30</time>
   <time name="orth">    0.00    0.00</time>
   <time name="total">    0.93    0.93</time>
   <energy>
    <i name="e_fr_energy">    -14.20653229</i>
    <i name="e_wo_entrp">    -14.20653229</i>
    <i name="e_0_energy">    -14.20653229</i>
   </energy>
  </scstep>
  <scstep>
   <time name="diag">    0.10    0.10</time>
   <time name="diis">    0.29    0.29</time>
   <time name="orth">    0.00    0.00</time>
   <time name="total">    0.78    0.79</time>
   <energy>
    <i name="alphaZ">      0.22422278</i>
    <i name="ewald">     53.38332005</i>
    <i name="hartreedc">   -448.84138535</i>
    <i name="XCdc">     33.94117628</i>
    <i name="pawpsdc">    320.57103640</i>
    <i name="pawaedc">   -322.69700668</i>
    <i name="eentropy">      0.00000000</i>
    <i name="bandstr">   -108.11725664</i>
    <i name="atom">    457.32929435</i>
    <i name="e_fr_energy">    -14.20659882</i>
    <i name="e_wo_entrp">    -14.20659882</i>
    <i name="e_0_energy">    -14.20659882</i>
   </energy>
  </scstep>
  <structure>
   <crystal>
    <varray name="basis" >
     <v>      10.00000000       0.00000000       0.00000000 </v>
     <v>       0.00000000      10.00000000       0.00000000 </v>
     <v>       0.00000000       0.00000000      10.00000000 </v>
    </varray>
    <i name="volume">   1000.00000000</i>
    <varray name="rec_basis" >
     <v>       0.10000000       0.00000000       0.00000000 </v>
     <v>       0.00000000       0.10000000       0.00000000 </v>
     <v>       0.00000000       0.00000000       0.10000000 </v>
    </varray>
   </crystal>
   <varray name="positions" >
    <v>       0.41433300       0.62583900       0.53305400 </v>
    <v>       0.32220300       0.59237400       0.51826200 </v>
    <v>       0.47134400       0.54527900       0.52632300 </v>
   </varray>
  </structure>
  <varray name="forces" >
   <v>      -0.34210514      -0.84323244      -0.16270538 </v>
   <v>       0.84585178       0.23855556       0.12208340 </v>
   <v>      -0.50374663       0.60467688       0.04062199 </v>
  </varray>
  <varray name="stress" >
   <v>      -1.80765799       0.19251212      -0.13899194 </v>
   <v>       0.19251213      -1.04292339      -0.11297574 </v>
   <v>      -0.13898875      -0.11296578      -0.17123981 </v>
  </varray>
  <energy>
   <i name="e_fr_energy">    -14.20659882</i>
   <i name="e_wo_entrp">    -14.20659882</i>
   <i name="e_0_energy">      0.00000000</i>
   <i name="kinetic">      0.00006641</i>
   <i name="nosepot">      0.00000000</i>
   <i name="nosekinetic">      0.00000000</i>
   <i name="total">    -14.20653241</i>
  </energy>
 </calculation>
 <calculation>
  <scstep>
   <time name="diag">    0.09    0.09</time>
   <time name="diis">    0.30    0.30</time>
   <time name="orth">    0.00    0.00</time>
   <time name="total">    0.88    0.88</time>
   <energy>
    <i name="alphaZ">      0.22422278</i>
    <i name="ewald">     53.44154556</i>
    <i name="hartreedc">   -448.87514560</i>
    <i name="XCdc">     33.94283255</i>
    <i name="pawpsdc">    320.56759764</i>
    <i name="pawaedc">   -322.69395846</i>
    <i name="eentropy">      0.00000000</i>
    <i name="bandstr">   -108.14355257</i>
    <i name="atom">    457.32929435</i>
    <i name="e_fr_energy">    -14.20716374</i>
    <i name="e_wo_entrp">    -14.20716374</i>
    <i name="e_0_energy">    -14.20716374</i>
   </energy>
  </scstep>
  <scstep>
   <time name="diag">    0.09    0.09</time>
   <time name="diis">    0.30    0.30</time>
   <time name="orth">    0.00    0.00</time>
   <time name="total">    0.89    0.89</time>
   <energy>
    <i name="e_fr_energy">    -14.20716996</i>
    <i name="e_wo_entrp">    -14.20716996</i>
    <i name="e_0_energy">    -14.20716996</i>
   </energy>
  </scstep>
  <scstep>
   <time name="diag">    0.15    0.15</time>
   <time name="diis">    0.29    0.29</time>
   <time name="orth">    0.00    0.00</time>
   <time name="total">    0.95    0.95</time>
   <energy>
    <i name="e_fr_energy">    -14.20716985</i>
    <i name="e_wo_entrp">    -14.20716985</i>
    <i name="e_0_energy">    -14.20716985</i>
   </energy>
  </scstep>
  <scstep>
   <time name="diag">    0.09    0.09</time>
   <time name="diis">    0.30    0.30</time>
   <time name="orth">    0.00    0.00</time>
   <time name="total">    0.75    0.76</time>
   <energy>
    <i name="alphaZ">      0.22422278</i>
    <i name="ewald">     53.44154556</i>
    <i name="hartreedc">   -448.86966735</i>
    <i name="XCdc">     33.94260794</i>
    <i name="pawpsdc">    320.62314629</i>
    <i name="pawaedc">   -322.74967423</i>
    <i name="eentropy">      0.00000000</i>
    <i name="bandstr">   -108.14865624</i>
    <i name="atom">    457.32929435</i>
    <i name="e_fr_energy">    -14.20718090</i>
    <i name="e_wo_entrp">    -14.20718090</i>
    <i name="e_0_energy">    -14.20718090</i>
   </energy>
  </scstep>
  <structure>
   <crystal>
    <varray name="basis" >
     <v>      10.00000000       0.00000000       0.00000000 </v>
     <v>       0.00000000      10.00000000       0.00000000 </v>
     <v>       0.00000000       0.00000000      10.00000000 </v>
    </varray>
    <i name="volume">   1000.00000000</i>
    <varray name="rec_basis" >
     <v>       0.10000000       0.00000000       0.00000000 </v>
     <v>       0.00000000       0.10000000       0.00000000 </v>
     <v>       0.00000000       0.00000000       0.10000000 </v>
    </varray>
   </crystal>
   <varray name="positions" >
    <v>       0.41433222       0.62583708       0.53305362 </v>
    <v>       0.32223347       0.59238255       0.51826664 </v>
    <v>       0.47132594       0.54530115       0.52632451 </v>
   </varray>
  </structure>
  <varray name="forces" >
   <v>      -0.33736975      -0.83160941      -0.16026531 </v>
   <v>       0.83244798       0.23581975       0.12015597 </v>
   <v>      -0.49507822       0.59578966       0.04010934 </v>
  </varray>
  <varray name="stress" >
   <v>      -1.78002552       0.18917714      -0.13652706 </v>
   <v>       0.18917658      -1.02783366      -0.11082180 </v>
   <v>      -0.13652357      -0.11081156      -0.16897199 </v>
  </varray>
  <energy>
   <i name="e_fr_energy">    -14.20718090</i>
   <i name="e_wo_entrp">    -14.20718090</i>
   <i name="e_0_energy">      0.00000000</i>
   <i name="kinetic">      0.00058909</i>
   <i name="nosepot">      0.00000000</i>
   <i name="nosekinetic">      0.00000000</i>
   <i name="total">    -14.20659181</i>
  </energy>
 </calculation>
 <calculation>
  <scstep>
   <time name="diag">    0.09    0.09</time>
   <time name="diis">    0.30    0.30</time>
   <time name="orth">    0.00    0.00</time>
   <time name="total">    0.88    0.88</time>
   <energy>
    <i name="alphaZ">      0.22422278</i>
    <i name="ewald">     53.55709903</i>
    <i name="hartreedc">   -448.92149991</i>
    <i name="XCdc">     33.94534298</i>
    <i name="pawpsdc">    320.78179771</i>
    <i name="pawaedc">   -322.90863165</i>
    <i name="eentropy">      0.00000000</i>
    <i name="bandstr">   -108.21578823</i>
    <i name="atom">    457.32929435</i>
    <i name="e_fr_energy">    -14.20816294</i>
    <i name="e_wo_entrp">    -14.20816294</i>
    <i name="e_0_energy">    -14.20816294</i>
   </energy>
  </scstep>
  <scstep>
   <time name="diag">    0.09    0.09</time>
   <time name="diis">    0.30    0.30</time>
   <time name="orth">    0.00    0.00</time>
   <time name="total">    0.90    0.91</time>
   <energy>
    <i name="e_fr_energy">    -14.20820089</i>
    <i name="e_wo_entrp">    -14.20820089</i>
    <i name="e_0_energy">    -14.20820089</i>
   </energy>
  </scstep>
  <scstep>
   <time name="diag">    0.09    0.09</time>
   <time name="diis">    0.34    0.34</time>
   <time name="orth">    0.00    0.00</time>
   <time name="total">    0.95    0.95</time>
   <energy>
    <i name="e_fr_energy">    -14.20820450</i>
    <i name="e_wo_entrp">    -14.20820450</i>
    <i name="e_0_energy">    -14.20820450</i>
   </energy>
  </scstep>
  <scstep>
   <time name="diag">    0.09    0.09</time>
   <time name="diis">    0.30    0.30</time>
   <time name="orth">    0.00    0.00</time>
   <time name="total">    0.82    0.82</time>
   <energy>
    <i name="alphaZ">      0.22422278</i>
    <i name="ewald">     53.55709903</i>
    <i name="hartreedc">   -448.96322269</i>
    <i name="XCdc">     33.94743225</i>
    <i name="pawpsdc">    320.80766929</i>
    <i name="pawaedc">   -322.93501473</i>
    <i name="eentropy">      0.00000000</i>
    <i name="bandstr">   -108.17568644</i>
    <i name="atom">    457.32929435</i>
    <i name="e_fr_energy">    -14.20820615</i>
    <i name="e_wo_entrp">    -14.20820615</i>
    <i name="e_0_energy">    -14.20820615</i>
   </energy>
  </scstep>
  <structure>
   <crystal>
    <varray name="basis" >
     <v>      10.00000000       0.00000000       0.00000000 </v>
     <v>       0.00000000      10.00000000       0.00000000 </v>
     <v>       0.00000000       0.00000000      10.00000000 </v>
    </varray>
    <i name="volume">   1000.00000000</i>
    <varray name="rec_basis" >
     <v>       0.10000000       0.00000000       0.00000000 </v>
     <v>       0.00000000       0.10000000       0.00000000 </v>
     <v>       0.00000000       0.00000000       0.10000000 </v>
    </varray>
   </crystal>
   <varray name="positions" >
    <v>       0.41433069       0.62583328       0.53305287 </v>
    <v>       0.32229402       0.59239963       0.51827561 </v>
    <v>       0.47128999       0.54534483       0.52632747 </v>
   </varray>
  </structure>
  <varray name="forces" >
   <v>      -0.32583014      -0.80236720      -0.15464616 </v>
   <v>       0.80504334       0.22706025       0.11587774 </v>
   <v>      -0.47921320       0.57530695       0.03876842 </v>
  </varray>
  <varray name="stress" >
   <v>      -1.72083906       0.18223371      -0.13113584 </v>
   <v>       0.18223343      -0.99538763      -0.10661915 </v>
   <v>      -0.13113168      -0.10660850      -0.16697217 </v>
  </varray>
  <energy>
   <i name="e_fr_energy">    -14.20820615</i>
   <i name="e_wo_entrp">    -14.20820615</i>
   <i name="e_0_energy">      0.00000000</i>
   <i name="kinetic">      0.00160005</i>
   <i name="nosepot">      0.00000000</i>
   <i name="nosekinetic">      0.00000000</i>
   <i name="total">    -14.20660610</i>
  </energy>
 </calculation>
 <calculation>
  <scstep>
   <time name="diag">    0.10    0.10</time>
   <time name="diis">    0.30    0.30</time>
   <time name="orth">    0.00    0.00</time>
   <time name="total">    0.90    0.90</time>
   <energy>
    <i name="alphaZ">      0.22422278</i>
    <i name="ewald">     53.72827925</i>
    <i name="hartreedc">   -449.12651677</i>
    <i name="XCdc">     33.95580111</i>
    <i name="pawpsdc">    321.05246468</i>
    <i name="pawaedc">   -323.18116177</i>
    <i name="eentropy">      0.00000000</i>
    <i name="bandstr">   -108.19199329</i>
    <i name="atom">    457.32929435</i>
    <i name="e_fr_energy">    -14.20960967</i>
    <i name="e_wo_entrp">    -14.20960967</i>
    <i name="e_0_energy">    -14.20960967</i>
   </energy>
  </scstep>
  <scstep>
   <time name="diag">    0.09    0.09</time>
   <time name="diis">    0.30    0.30</time>
   <time name="orth">    0.00    0.00</time>
   <time name="total">    0.91    0.93</time>
   <energy>
    <i name="e_fr_energy">    -14.20963191</i>
    <i name="e_wo_entrp">    -14.20963191</i>
    <i name="e_0_energy">    -14.20963191</i>
   </energy>
  </scstep>
  <scstep>
   <time name="diag">    0.09    0.09</time>
   <time name="diis">    0.29    0.29</time>
   <time name="orth">    0.00    0.00</time>
   <time name="total">    0.91    0.92</time>
   <energy>
    <i name="e_fr_energy">    -14.20964230</i>
    <i name="e_wo_entrp">    -14.20964230</i>
    <i name="e_0_energy">    -14.20964230</i>
   </energy>
  </scstep>
  <scstep>
   <time name="diag">    0.09    0.09</time>
   <time name="diis">    0.29    0.29</time>
   <time name="orth">    0.00    0.00</time>
   <time name="total">    0.76    0.76</time>
   <energy>
    <i name="alphaZ">      0.22422278</i>
    <i name="ewald">     53.72827925</i>
    <i name="hartreedc">   -449.09525446</i>
    <i name="XCdc">     33.95410551</i>
    <i name="pawpsdc">    321.03733799</i>
    <i name="pawaedc">   -323.16581985</i>
    <i name="eentropy">      0.00000000</i>
    <i name="bandstr">   -108.22180867</i>
    <i name="atom">    457.32929435</i>
    <i name="e_fr_energy">    -14.20964310</i>
    <i name="e_wo_entrp">    -14.20964310</i>
    <i name="e_0_energy">    -14.20964310</i>
   </energy>
  </scstep>
  <structure>
   <crystal>
    <varray name="basis" >
     <v>      10.00000000       0.00000000       0.00000000 </v>
     <v>       0.00000000      10.00000000       0.00000000 </v>
     <v>       0.00000000       0.00000000      10.00000000 </v>
    </varray>
    <i name="volume">   1000.00000000</i>
    <varray name="rec_basis" >
     <v>       0.10000000       0.00000000       0.00000000 </v>
     <v>       0.00000000       0.10000000       0.00000000 </v>
     <v>       0.00000000       0.00000000       0.10000000 </v>
    </varray>
   </crystal>
   <varray name="positions" >
    <v>       0.41432841       0.62582768       0.53305177 </v>
    <v>       0.32238365       0.59242490       0.51828878 </v>
    <v>       0.47123673       0.54540929       0.52633183 </v>
   </varray>
  </structure>
  <varray name="forces" >
   <v>      -0.31026847      -0.76225873      -0.14677473 </v>
   <v>       0.76401093       0.21616157       0.11019642 </v>
   <v>      -0.45374246       0.54609715       0.03657831 </v>
  </varray>
  <varray name="stress" >
   <v>      -1.65332529       0.17259252      -0.12452787 </v>
   <v>       0.17259242      -0.96598867      -0.10065800 </v>
   <v>      -0.12452500      -0.10064804      -0.18053525 </v>
  </varray>
  <energy>
   <i name="e_fr_energy">    -14.20964310</i>
   <i name="e_wo_entrp">    -14.20964310</i>
   <i name="e_0_energy">      0.00000000</i>
   <i name="kinetic">      0.00303247</i>
   <i name="nosepot">      0.00000000</i>
   <i name="nosekinetic">      0.00000000</i>
   <i name="total">    -14.20661063</i>
  </energy>
 </calculation>
 <calculation>
  <scstep>
   <time name="diag">    0.09    0.09</time>
   <time name="diis">    0.30    0.30</time>
   <time name="orth">    0.00    0.00</time>
   <time name="total">    0.89    0.89</time>
   <energy>
    <i name="alphaZ">      0.22422278</i>
    <i name="ewald">     53.95255757</i>
    <i name="hartreedc">   -449.24534145</i>
    <i name="XCdc">     33.96153337</i>
    <i name="pawpsdc">    321.30988185</i>
    <i name="pawaedc">   -323.43949093</i>
    <i name="eentropy">      0.00000000</i>
    <i name="bandstr">   -108.30406673</i>
    <i name="atom">    457.32929435</i>
    <i name="e_fr_energy">    -14.21140920</i>
    <i name="e_wo_entrp">    -14.21140920</i>
    <i name="e_0_energy">    -14.21140920</i>
   </energy>
  </scstep>
  <scstep>
   <time name="diag">    0.09    0.09</time>
   <time name="diis">    0.31    0.31</time>
   <time name="orth">    0.00    0.00</time>
   <time name="total">    0.93    0.93</time>
   <energy>
    <i name="e_fr_energy">    -14.21141242</i>
    <i name="e_wo_entrp">    -14.21141242</i>
    <i name="e_0_energy">    -14.21141242</i>
   </energy>
  </scstep>
  <scstep>
   <time name="diag">    0.09    0.09</time>
   <time name="diis">    0.29    0.29</time>
   <time name="orth">    0.00    0.00</time>
   <time name="total">    0.92    0.92</time>
   <energy>
    <i name="e_fr_energy">    -14.21141248</i>
    <i name="e_wo_entrp">    -14.21141248</i>
    <i name="e_0_energy">    -14.21141248</i>
   </energy>
  </scstep>
  <scstep>
   <time name="diag">    0.09    0.09</time>
   <time name="diis">    0.29    0.29</time>
   <time name="orth">    0.00    0.00</time>
   <time name="total">    0.76    0.77</time>
   <energy>
    <i name="alphaZ">      0.22422278</i>
    <i name="ewald">     53.95255757</i>
    <i name="hartreedc">   -449.27848488</i>
    <i name="XCdc">     33.96335725</i>
    <i name="pawpsdc">    321.35583906</i>
    <i name="pawaedc">   -323.48576386</i>
    <i name="eentropy">      0.00000000</i>
    <i name="bandstr">   -108.27243614</i>
    <i name="atom">    457.32929435</i>
    <i name="e_fr_energy">    -14.21141388</i>
    <i name="e_wo_entrp">    -14.21141388</i>
    <i name="e_0_energy">    -14.21141388</i>
   </energy>
  </scstep>
  <structure>
   <crystal>
    <varray name="basis" >
     <v>      10.00000000       0.00000000       0.00000000 </v>
     <v>       0.00000000      10.00000000       0.00000000 </v>
     <v>       0.00000000       0.00000000      10.00000000 </v>
    </varray>
    <i name="volume">   1000.00000000</i>
    <varray name="rec_basis" >
     <v>       0.10000000       0.00000000       0.00000000 </v>
     <v>       0.00000000       0.10000000       0.00000000 </v>
     <v>       0.00000000       0.00000000       0.10000000 </v>
    </varray>
   </crystal>
   <varray name="positions" >
    <v>       0.41432544       0.62582035       0.53305035 </v>
    <v>       0.32250089       0.59245799       0.51830592 </v>
    <v>       0.47116708       0.54549349       0.52633751 </v>
   </varray>
  </structure>
  <varray name="forces" >
   <v>      -0.28900164      -0.70905453      -0.13631630 </v>
   <v>       0.71182475       0.20084423       0.10243676 </v>
   <v>      -0.42282312       0.50821030       0.03387955 </v>
  </varray>
  <varray name="stress" >
   <v>      -1.52344945       0.15996913      -0.11523940 </v>
   <v>       0.15996924      -0.88662949      -0.09296888 </v>
   <v>      -0.11523678      -0.09295869      -0.15770813 </v>
  </varray>
  <energy>
   <i name="e_fr_energy">    -14.21141388</i>
   <i name="e_wo_entrp">    -14.21141388</i>
   <i name="e_0_energy">      0.00000000</i>
   <i name="kinetic">      0.00479357</i>
   <i name="nosepot">      0.00000000</i>
   <i name="nosekinetic">      0.00000000</i>
   <i name="total">    -14.20662030</i>
  </energy>
 </calculation>
 <calculation>
  <scstep>
   <time name="diag">    0.09    0.09</time>
   <time name="diis">    0.30    0.30</time>
   <time name="orth">    0.00    0.00</time>
   <time name="total">    0.91    0.91</time>
   <energy>
    <i name="alphaZ">      0.22422278</i>
    <i name="ewald">     54.22668638</i>
    <i name="hartreedc">   -449.52322322</i>
    <i name="XCdc">     33.97581467</i>
    <i name="pawpsdc">    321.77534900</i>
    <i name="pawaedc">   -323.90722964</i>
    <i name="eentropy">      0.00000000</i>
    <i name="bandstr">   -108.31430944</i>
    <i name="atom">    457.32929435</i>
    <i name="e_fr_energy">    -14.21339513</i>
    <i name="e_wo_entrp">    -14.21339513</i>
    <i name="e_0_energy">    -14.21339513</i>
   </energy>
  </scstep>
  <scstep>
   <time name="diag">    0.09    0.09</time>
   <time name="diis">    0.30    0.30</time>
   <time name="orth">    0.00    0.00</time>
   <time name="total">    0.92    0.93</time>
   <energy>
    <i name="e_fr_energy">    -14.21339353</i>
    <i name="e_wo_entrp">    -14.21339353</i>
    <i name="e_0_energy">    -14.21339353</i>
   </energy>
  </scstep>
  <scstep>
   <time name="diag">    0.09    0.09</time>
   <time name="diis">    0.29    0.29</time>
   <time name="orth">    0.00    0.00</time>
   <time name="total">    0.92    0.93</time>
   <energy>
    <i name="e_fr_energy">    -14.21339388</i>
    <i name="e_wo_entrp">    -14.21339388</i>
    <i name="e_0_energy">    -14.21339388</i>
   </energy>
  </scstep>
  <scstep>
   <time name="diag">    0.09    0.09</time>
   <time name="diis">    0.28    0.28</time>
   <time name="orth">    0.00    0.00</time>
   <time name="total">    0.78    0.78</time>
   <energy>
    <i name="alphaZ">      0.22422278</i>
    <i name="ewald">     54.22668638</i>
    <i name="hartreedc">   -449.48549403</i>
    <i name="XCdc">     33.97376026</i>
    <i name="pawpsdc">    321.71687508</i>
    <i name="pawaedc">   -323.84838560</i>
    <i name="eentropy">      0.00000000</i>
    <i name="bandstr">   -108.35035359</i>
    <i name="atom">    457.32929435</i>
    <i name="e_fr_energy">    -14.21339438</i>
    <i name="e_wo_entrp">    -14.21339438</i>
    <i name="e_0_energy">    -14.21339438</i>
   </energy>
  </scstep>
  <structure>
   <crystal>
    <varray name="basis" >
     <v>      10.00000000       0.00000000       0.00000000 </v>
     <v>       0.00000000      10.00000000       0.00000000 </v>
     <v>       0.00000000       0.00000000      10.00000000 </v>
    </varray>
    <i name="volume">   1000.00000000</i>
    <varray name="rec_basis" >
     <v>       0.10000000       0.00000000       0.00000000 </v>
     <v>       0.00000000       0.10000000       0.00000000 </v>
     <v>       0.00000000       0.00000000       0.10000000 </v>
    </varray>
   </crystal>
   <varray name="positions" >
    <v>       0.41432181       0.62581141       0.53304861 </v>
    <v>       0.32264384       0.59249833       0.51832677 </v>
    <v>       0.47108215       0.54559604       0.52634442 </v>
   </varray>
  </structure>
  <varray name="forces" >
   <v>      -0.26285728      -0.64483445      -0.12316147 </v>
   <v>       0.64538893       0.18305539       0.09271030 </v>
   <v>      -0.38253165       0.46177906       0.03045116 </v>
  </varray>
  <varray name="stress" >
   <v>      -1.39857229       0.14389010      -0.10384952 </v>
   <v>       0.14389023      -0.82576794      -0.08321664 </v>
   <v>      -0.10384610      -0.08320583      -0.16646615 </v>
  </varray>
  <energy>
   <i name="e_fr_energy">    -14.21339438</i>
   <i name="e_wo_entrp">    -14.21339438</i>
   <i name="e_0_energy">      0.00000000</i>
   <i name="kinetic">      0.00676744</i>
   <i name="nosepot">      0.00000000</i>
   <i name="nosekinetic">      0.00000000</i>
   <i name="total">    -14.20662694</i>
  </energy>
 </calculation>
 <calculation>
  <scstep>
   <time name="diag">    0.09    0.09</time>
   <time name="diis">    0.30    0.30</time>
   <time name="orth">    0.00    0.00</time>
   <time name="total">    0.90    0.90</time>
   <energy>
    <i name="alphaZ">      0.22422278</i>
    <i name="ewald">     54.54652016</i>
    <i name="hartreedc">   -449.71572162</i>
    <i name="XCdc">     33.98525230</i>
    <i name="pawpsdc">    322.12685004</i>
    <i name="pawaedc">   -324.26005356</i>
    <i name="eentropy">      0.00000000</i>
    <i name="bandstr">   -108.45181953</i>
    <i name="atom">    457.32929435</i>
    <i name="e_fr_energy">    -14.21545508</i>
    <i name="e_wo_entrp">    -14.21545508</i>
    <i name="e_0_energy">    -14.21545508</i>
   </energy>
  </scstep>
  <scstep>
   <time name="diag">    0.09    0.09</time>
   <time name="diis">    0.29    0.29</time>
   <time name="orth">    0.00    0.00</time>
   <time name="total">    0.93    0.94</time>
   <energy>
    <i name="e_fr_energy">    -14.21545485</i>
    <i name="e_wo_entrp">    -14.21545485</i>
    <i name="e_0_energy">    -14.21545485</i>
   </energy>
  </scstep>
  <scstep>
   <time name="diag">    0.09    0.09</time>
   <time name="diis">    0.30    0.30</time>
   <time name="orth">    0.00    0.00</time>
   <time name="total">    0.96    0.96</time>
   <energy>
    <i name="e_fr_energy">    -14.21545484</i>
    <i name="e_wo_entrp">    -14.21545484</i>
    <i name="e_0_energy">    -14.21545484</i>
   </energy>
  </scstep>
  <scstep>
   <time name="diag">    0.09    0.09</time>
   <time name="diis">    0.28    0.28</time>
   <time name="orth">    0.00    0.00</time>
   <time name="total">    0.77    0.77</time>
   <energy>
    <i name="alphaZ">      0.22422278</i>
    <i name="ewald">     54.54652016</i>
    <i name="hartreedc">   -449.74014878</i>
    <i name="XCdc">     33.98666678</i>
    <i name="pawpsdc">    322.16972084</i>
    <i name="pawaedc">   -324.30330151</i>
    <i name="eentropy">      0.00000000</i>
    <i name="bandstr">   -108.42842946</i>
    <i name="atom">    457.32929435</i>
    <i name="e_fr_energy">    -14.21545483</i>
    <i name="e_wo_entrp">    -14.21545483</i>
    <i name="e_0_energy">    -14.21545483</i>
   </energy>
  </scstep>
  <structure>
   <crystal>
    <varray name="basis" >
     <v>      10.00000000       0.00000000       0.00000000 </v>
     <v>       0.00000000      10.00000000       0.00000000 </v>
     <v>       0.00000000       0.00000000      10.00000000 </v>
    </varray>
    <i name="volume">   1000.00000000</i>
    <varray name="rec_basis" >
     <v>       0.10000000       0.00000000       0.00000000 </v>
     <v>       0.00000000       0.10000000       0.00000000 </v>
     <v>       0.00000000       0.00000000       0.10000000 </v>
    </varray>
   </crystal>
   <varray name="positions" >
    <v>       0.41431759       0.62580103       0.53304660 </v>
    <v>       0.32281010       0.59254528       0.51835096 </v>
    <v>       0.47098341       0.54571527       0.52635243 </v>
   </varray>
  </structure>
  <varray name="forces" >
   <v>      -0.23063933      -0.56587267      -0.10721463 </v>
   <v>       0.56924036       0.15963750       0.08107992 </v>
   <v>      -0.33860103       0.40623518       0.02613471 </v>
  </varray>
  <varray name="stress" >
   <v>      -1.22472928       0.12756054      -0.09190114 </v>
   <v>       0.12756092      -0.72372991      -0.07315719 </v>
   <v>      -0.09189840      -0.07314725      -0.14040261 </v>
  </varray>
  <energy>
   <i name="e_fr_energy">    -14.21545483</i>
   <i name="e_wo_entrp">    -14.21545483</i>
   <i name="e_0_energy">      0.00000000</i>
   <i name="kinetic">      0.00882152</i>
   <i name="nosepot">      0.00000000</i>
   <i name="nosekinetic">      0.00000000</i>
   <i name="total">    -14.20663331</i>
  </energy>
 </calculation>
 <calculation>
  <scstep>
   <time name="diag">    0.09    0.09</time>
   <time name="diis">    0.30    0.30</time>
   <time name="orth">    0.00    0.00</time>
   <time name="total">    0.89    0.89</time>
   <energy>
    <i name="alphaZ">      0.22422278</i>
    <i name="ewald">     54.90718491</i>
    <i name="hartreedc">   -450.04560131</i>
    <i name="XCdc">     34.00234412</i>
    <i name="pawpsdc">    322.71231722</i>
    <i name="pawaedc">   -324.84874307</i>
    <i name="eentropy">      0.00000000</i>
    <i name="bandstr">   -108.49847484</i>
    <i name="atom">    457.32929435</i>
    <i name="e_fr_energy">    -14.21745584</i>
    <i name="e_wo_entrp">    -14.21745584</i>
    <i name="e_0_energy">    -14.21745584</i>
   </energy>
  </scstep>
  <scstep>
   <time name="diag">    0.09    0.09</time>
   <time name="diis">    0.30    0.30</time>
   <time name="orth">    0.00    0.00</time>
   <time name="total">    0.95    0.95</time>
   <energy>
    <i name="e_fr_energy">    -14.21745549</i>
    <i name="e_wo_entrp">    -14.21745549</i>
    <i name="e_0_energy">    -14.21745549</i>
   </energy>
  </scstep>
  <scstep>
   <time name="diag">    0.09    0.09</time>
   <time name="diis">    0.29    0.29</time>
   <time name="orth">    0.00    0.00</time>
   <time name="total">    0.93    1.00</time>
   <energy>
    <i name="e_fr_energy">    -14.21745567</i>
    <i name="e_wo_entrp">    -14.21745567</i>
    <i name="e_0_energy">    -14.21745567</i>
   </energy>
  </scstep>
  <scstep>
   <time name="diag">    0.09    0.09</time>
   <time name="diis">    0.30    0.30</time>
   <time name="orth">    0.00    0.00</time>
   <time name="total">    0.77    0.77</time>
   <energy>
    <i name="alphaZ">      0.22422278</i>
    <i name="ewald">     54.90718491</i>
    <i name="hartreedc">   -450.02321494</i>
    <i name="XCdc">     34.00096828</i>
    <i name="pawpsdc">    322.67425827</i>
    <i name="pawaedc">   -324.81029524</i>
    <i name="eentropy">      0.00000000</i>
    <i name="bandstr">   -108.51987441</i>
    <i name="atom">    457.32929435</i>
    <i name="e_fr_energy">    -14.21745599</i>
    <i name="e_wo_entrp">    -14.21745599</i>
    <i name="e_0_energy">    -14.21745599</i>
   </energy>
  </scstep>
  <structure>
   <crystal>
    <varray name="basis" >
     <v>      10.00000000       0.00000000       0.00000000 </v>
     <v>       0.00000000      10.00000000       0.00000000 </v>
     <v>       0.00000000       0.00000000      10.00000000 </v>
    </varray>
    <i name="volume">   1000.00000000</i>
    <varray name="rec_basis" >
     <v>       0.10000000       0.00000000       0.00000000 </v>
     <v>       0.00000000       0.10000000       0.00000000 </v>
     <v>       0.00000000       0.00000000       0.10000000 </v>
    </varray>
   </crystal>
   <varray name="positions" >
    <v>       0.41431285       0.62578936       0.53304435 </v>
    <v>       0.32299694       0.59259801       0.51837809 </v>
    <v>       0.47087243       0.54584918       0.52636138 </v>
   </varray>
  </structure>
  <varray name="forces" >
   <v>      -0.19513697      -0.47765470      -0.08961083 </v>
   <v>       0.48037113       0.13475314       0.06774357 </v>
   <v>      -0.28523416       0.34290156       0.02186726 </v>
  </varray>
  <varray name="stress" >
   <v>      -1.06334664       0.10583560      -0.07574502 </v>
   <v>       0.10583494      -0.64819726      -0.05951138 </v>
   <v>      -0.07574153      -0.05950087      -0.16131684 </v>
  </varray>
  <energy>
   <i name="e_fr_energy">    -14.21745599</i>
   <i name="e_wo_entrp">    -14.21745599</i>
   <i name="e_0_energy">      0.00000000</i>
   <i name="kinetic">      0.01081430</i>
   <i name="nosepot">      0.00000000</i>
   <i name="nosekinetic">      0.00000000</i>
   <i name="total">    -14.20664169</i>
  </energy>
 </calculation>
 <calculation>
  <scstep>
   <time name="diag">    0.11    0.12</time>
   <time name="diis">    0.31    0.31</time>
   <time name="orth">    0.00    0.00</time>
   <time name="total">    1.01    1.01</time>
   <energy>
    <i name="alphaZ">      0.22422278</i>
    <i name="ewald">     55.30292151</i>
    <i name="hartreedc">   -450.31994066</i>
    <i name="XCdc">     34.01583595</i>
    <i name="pawpsdc">    323.20535340</i>
    <i name="pawaedc">   -325.34384118</i>
    <i name="eentropy">      0.00000000</i>
    <i name="bandstr">   -108.63309857</i>
    <i name="atom">    457.32929435</i>
    <i name="e_fr_energy">    -14.21925242</i>
    <i name="e_wo_entrp">    -14.21925242</i>
    <i name="e_0_energy">    -14.21925242</i>
   </energy>
  </scstep>
  <scstep>
   <time name="diag">    0.11    0.11</time>
   <time name="diis">    0.29    0.29</time>
   <time name="orth">    0.00    0.00</time>
   <time name="total">    0.96    0.96</time>
   <energy>
    <i name="e_fr_energy">    -14.21925368</i>
    <i name="e_wo_entrp">    -14.21925368</i>
    <i name="e_0_energy">    -14.21925368</i>
   </energy>
  </scstep>
  <scstep>
   <time name="diag">    0.09    0.09</time>
   <time name="diis">    0.30    0.30</time>
   <time name="orth">    0.01    0.01</time>
   <time name="total">    1.04    1.05</time>
   <energy>
    <i name="e_fr_energy">    -14.21925381</i>
    <i name="e_wo_entrp">    -14.21925381</i>
    <i name="e_0_energy">    -14.21925381</i>
   </energy>
  </scstep>
  <scstep>
   <time name="diag">    0.12    0.12</time>
   <time name="diis">    0.38    0.38</time>
   <time name="orth">    0.01    0.01</time>
   <time name="total">    1.01    1.01</time>
   <energy>
    <i name="alphaZ">      0.22422278</i>
    <i name="ewald">     55.30292151</i>
    <i name="hartreedc">   -450.33841605</i>
    <i name="XCdc">     34.01698528</i>
    <i name="pawpsdc">    323.23900108</i>
    <i name="pawaedc">   -325.37775906</i>
    <i name="eentropy">      0.00000000</i>
    <i name="bandstr">   -108.61550379</i>
    <i name="atom">    457.32929435</i>
    <i name="e_fr_energy">    -14.21925390</i>
    <i name="e_wo_entrp">    -14.21925390</i>
    <i name="e_0_energy">    -14.21925390</i>
   </energy>
  </scstep>
  <structure>
   <crystal>
    <varray name="basis" >
     <v>      10.00000000       0.00000000       0.00000000 </v>
     <v>       0.00000000      10.00000000       0.00000000 </v>
     <v>       0.00000000       0.00000000      10.00000000 </v>
    </varray>
    <i name="volume">   1000.00000000</i>
    <varray name="rec_basis" >
     <v>       0.10000000       0.00000000       0.00000000 </v>
     <v>       0.00000000       0.10000000       0.00000000 </v>
     <v>       0.00000000       0.00000000       0.10000000 </v>
    </varray>
   </crystal>
   <varray name="positions" >
    <v>       0.41430767       0.62577662       0.53304189 </v>
    <v>       0.32320112       0.59265560       0.51840766 </v>
    <v>       0.47075114       0.54599548       0.52637112 </v>
   </varray>
  </structure>
  <varray name="forces" >
   <v>      -0.15560316      -0.37889408      -0.07070081 </v>
   <v>       0.38200994       0.10667292       0.05351113 </v>
   <v>      -0.22640678       0.27222116       0.01718968 </v>
  </varray>
  <varray name="stress" >
   <v>      -0.86481726       0.08396129      -0.05938440 </v>
   <v>       0.08396156      -0.54130675      -0.04777269 </v>
   <v>      -0.05938054      -0.04776299      -0.15202904 </v>
  </varray>
  <energy>
   <i name="e_fr_energy">    -14.21925390</i>
   <i name="e_wo_entrp">    -14.21925390</i>
   <i name="e_0_energy">      0.00000000</i>
   <i name="kinetic">      0.01260212</i>
   <i name="nosepot">      0.00000000</i>
   <i name="nosekinetic">      0.00000000</i>
   <i name="total">    -14.20665178</i>
  </energy>
 </calculation>
 <calculation>
  <scstep>
   <time name="diag">    0.12    0.12</time>
   <time name="diis">    0.40    0.40</time>
   <time name="orth">    0.01    0.01</time>
   <time name="total">    1.21    1.21</time>
   <energy>
    <i name="alphaZ">      0.22422278</i>
    <i name="ewald">     55.72722482</i>
    <i name="hartreedc">   -450.67870623</i>
    <i name="XCdc">     34.03435582</i>
    <i name="pawpsdc">    323.84690490</i>
    <i name="pawaedc">   -325.98848763</i>
    <i name="eentropy">      0.00000000</i>
    <i name="bandstr">   -108.71552767</i>
    <i name="atom">    457.32929435</i>
    <i name="e_fr_energy">    -14.22071887</i>
    <i name="e_wo_entrp">    -14.22071887</i>
    <i name="e_0_energy">    -14.22071887</i>
   </energy>
  </scstep>
  <scstep>
   <time name="diag">    0.13    0.13</time>
   <time name="diis">    0.37    0.37</time>
   <time name="orth">    0.00    0.01</time>
   <time name="total">    1.29    1.29</time>
   <energy>
    <i name="e_fr_energy">    -14.22071881</i>
    <i name="e_wo_entrp">    -14.22071881</i>
    <i name="e_0_energy">    -14.22071881</i>
   </energy>
  </scstep>
  <scstep>
   <time name="diag">    0.12    0.12</time>
   <time name="diis">    0.37    0.37</time>
   <time name="orth">    0.01    0.01</time>
   <time name="total">    1.29    1.30</time>
   <energy>
    <i name="e_fr_energy">    -14.22071880</i>
    <i name="e_wo_entrp">    -14.22071880</i>
    <i name="e_0_energy">    -14.22071880</i>
   </energy>
  </scstep>
  <scstep>
   <time name="diag">    0.12    0.12</time>
   <time name="diis">    0.38    0.39</time>
   <time name="orth">    0.01    0.01</time>
   <time name="total">    1.02    1.06</time>
   <energy>
    <i name="alphaZ">      0.22422278</i>
    <i name="ewald">     55.72722482</i>
    <i name="hartreedc">   -450.66293092</i>
    <i name="XCdc">     34.03336373</i>
    <i name="pawpsdc">    323.82236277</i>
    <i name="pawaedc">   -325.96369159</i>
    <i name="eentropy">      0.00000000</i>
    <i name="bandstr">   -108.73056486</i>
    <i name="atom">    457.32929435</i>
    <i name="e_fr_energy">    -14.22071892</i>
    <i name="e_wo_entrp">    -14.22071892</i>
    <i name="e_0_energy">    -14.22071892</i>
   </energy>
  </scstep>
  <structure>
   <crystal>
    <varray name="basis" >
     <v>      10.00000000       0.00000000       0.00000000 </v>
     <v>       0.00000000      10.00000000       0.00000000 </v>
     <v>       0.00000000       0.00000000      10.00000000 </v>
    </varray>
    <i name="volume">   1000.00000000</i>
    <varray name="rec_basis" >
     <v>       0.10000000       0.00000000       0.00000000 </v>
     <v>       0.00000000       0.10000000       0.00000000 </v>
     <v>       0.00000000       0.00000000       0.10000000 </v>
    </varray>
   </crystal>
   <varray name="positions" >
    <v>       0.41430214       0.62576302       0.53303927 </v>
    <v>       0.32341911       0.59271704       0.51843917 </v>
    <v>       0.47062168       0.54615162       0.52638148 </v>
   </varray>
  </structure>
  <varray name="forces" >
   <v>      -0.11106313      -0.27367827      -0.04999584 </v>
   <v>       0.27534299       0.07615266       0.03797195 </v>
   <v>      -0.16427986       0.19752562       0.01202390 </v>
  </varray>
  <varray name="stress" >
   <v>      -0.64580132       0.06192544      -0.04113173 </v>
   <v>       0.06192543      -0.42484681      -0.03224999 </v>
   <v>      -0.04112848      -0.03224015      -0.14717282 </v>
  </varray>
  <energy>
   <i name="e_fr_energy">    -14.22071892</i>
   <i name="e_wo_entrp">    -14.22071892</i>
   <i name="e_0_energy">      0.00000000</i>
   <i name="kinetic">      0.01405723</i>
   <i name="nosepot">      0.00000000</i>
   <i name="nosekinetic">      0.00000000</i>
   <i name="total">    -14.20666169</i>
  </energy>
 </calculation>
 <calculation>
  <scstep>
   <time name="diag">    0.12    0.13</time>
   <time name="diis">    0.37    0.37</time>
   <time name="orth">    0.00    0.01</time>
   <time name="total">    1.17    1.17</time>
   <energy>
    <i name="alphaZ">      0.22422278</i>
    <i name="ewald">     56.17299424</i>
    <i name="hartreedc">   -451.00210788</i>
    <i name="XCdc">     34.05044360</i>
    <i name="pawpsdc">    324.43812914</i>
    <i name="pawaedc">   -326.58220578</i>
    <i name="eentropy">      0.00000000</i>
    <i name="bandstr">   -108.85251075</i>
    <i name="atom">    457.32929435</i>
    <i name="e_fr_energy">    -14.22174031</i>
    <i name="e_wo_entrp">    -14.22174031</i>
    <i name="e_0_energy">    -14.22174031</i>
   </energy>
  </scstep>
  <scstep>
   <time name="diag">    0.12    0.12</time>
   <time name="diis">    0.36    0.36</time>
   <time name="orth">    0.00    0.01</time>
   <time name="total">    1.24    1.25</time>
   <energy>
    <i name="e_fr_energy">    -14.22173937</i>
    <i name="e_wo_entrp">    -14.22173937</i>
    <i name="e_0_energy">    -14.22173937</i>
   </energy>
  </scstep>
  <scstep>
   <time name="diag">    0.11    0.11</time>
   <time name="diis">    0.34    0.34</time>
   <time name="orth">    0.01    0.00</time>
   <time name="total">    1.27    1.29</time>
   <energy>
    <i name="e_fr_energy">    -14.22173963</i>
    <i name="e_wo_entrp">    -14.22173963</i>
    <i name="e_0_energy">    -14.22173963</i>
   </energy>
  </scstep>
  <scstep>
   <time name="diag">    0.12    0.12</time>
   <time name="diis">    0.31    0.31</time>
   <time name="orth">    0.00    0.01</time>
   <time name="total">    0.88    0.88</time>
   <energy>
    <i name="alphaZ">      0.22422278</i>
    <i name="ewald">     56.17299424</i>
    <i name="hartreedc">   -451.02519810</i>
    <i name="XCdc">     34.05179428</i>
    <i name="pawpsdc">    324.47342937</i>
    <i name="pawaedc">   -326.61787462</i>
    <i name="eentropy">      0.00000000</i>
    <i name="bandstr">   -108.83040217</i>
    <i name="atom">    457.32929435</i>
    <i name="e_fr_energy">    -14.22173986</i>
    <i name="e_wo_entrp">    -14.22173986</i>
    <i name="e_0_energy">    -14.22173986</i>
   </energy>
  </scstep>
  <structure>
   <crystal>
    <varray name="basis" >
     <v>      10.00000000       0.00000000       0.00000000 </v>
     <v>       0.00000000      10.00000000       0.00000000 </v>
     <v>       0.00000000       0.00000000      10.00000000 </v>
    </varray>
    <i name="volume">   1000.00000000</i>
    <varray name="rec_basis" >
     <v>       0.10000000       0.00000000       0.00000000 </v>
     <v>       0.00000000       0.10000000       0.00000000 </v>
     <v>       0.00000000       0.00000000       0.10000000 </v>
    </varray>
   </crystal>
   <varray name="positions" >
    <v>       0.41429635       0.62574880       0.53303654 </v>
    <v>       0.32364705       0.59278124       0.51847204 </v>
    <v>       0.47048628       0.54631489       0.52639227 </v>
   </varray>
  </structure>
  <varray name="forces" >
   <v>      -0.06494125      -0.15915814      -0.02731276 </v>
   <v>       0.16223014       0.04317954       0.02125101 </v>
   <v>      -0.09728888       0.11597860       0.00606175 </v>
  </varray>
  <varray name="stress" >
   <v>      -0.41697398       0.03562354      -0.02209201 </v>
   <v>       0.03562324      -0.30219636      -0.01631858 </v>
   <v>      -0.02208894      -0.01630816      -0.14050460 </v>
  </varray>
  <energy>
   <i name="e_fr_energy">    -14.22173986</i>
   <i name="e_wo_entrp">    -14.22173986</i>
   <i name="e_0_energy">      0.00000000</i>
   <i name="kinetic">      0.01507029</i>
   <i name="nosepot">      0.00000000</i>
   <i name="nosekinetic">      0.00000000</i>
   <i name="total">    -14.20666958</i>
  </energy>
 </calculation>
 <calculation>
  <scstep>
   <time name="diag">    0.09    0.09</time>
   <time name="diis">    0.30    0.30</time>
   <time name="orth">    0.00    0.00</time>
   <time name="total">    0.90    0.90</time>
   <energy>
    <i name="alphaZ">      0.22422278</i>
    <i name="ewald">     56.63244740</i>
    <i name="hartreedc">   -451.41549768</i>
    <i name="XCdc">     34.07175749</i>
    <i name="pawpsdc">    325.17225028</i>
    <i name="pawaedc">   -327.32011999</i>
    <i name="eentropy">      0.00000000</i>
    <i name="bandstr">   -108.91659277</i>
    <i name="atom">    457.32929435</i>
    <i name="e_fr_energy">    -14.22223815</i>
    <i name="e_wo_entrp">    -14.22223815</i>
    <i name="e_0_energy">    -14.22223815</i>
   </energy>
  </scstep>
  <scstep>
   <time name="diag">    0.11    0.11</time>
   <time name="diis">    0.29    0.30</time>
   <time name="orth">    0.00    0.00</time>
   <time name="total">    1.09    1.09</time>
   <energy>
    <i name="e_fr_energy">    -14.22223396</i>
    <i name="e_wo_entrp">    -14.22223396</i>
    <i name="e_0_energy">    -14.22223396</i>
   </energy>
  </scstep>
  <scstep>
   <time name="diag">    0.09    0.09</time>
   <time name="diis">    0.28    0.28</time>
   <time name="orth">    0.00    0.00</time>
   <time name="total">    0.97    0.97</time>
   <energy>
    <i name="e_fr_energy">    -14.22223404</i>
    <i name="e_wo_entrp">    -14.22223404</i>
    <i name="e_0_energy">    -14.22223404</i>
   </energy>
  </scstep>
  <scstep>
   <time name="diag">    0.09    0.09</time>
   <time name="diis">    0.28    0.28</time>
   <time name="orth">    0.00    0.00</time>
   <time name="total">    0.75    0.76</time>
   <energy>
    <i name="alphaZ">      0.22422278</i>
    <i name="ewald">     56.63244740</i>
    <i name="hartreedc">   -451.37574255</i>
    <i name="XCdc">     34.06954305</i>
    <i name="pawpsdc">    325.11564350</i>
    <i name="pawaedc">   -327.26303307</i>
    <i name="eentropy">      0.00000000</i>
    <i name="bandstr">   -108.95460930</i>
    <i name="atom">    457.32929435</i>
    <i name="e_fr_energy">    -14.22223385</i>
    <i name="e_wo_entrp">    -14.22223385</i>
    <i name="e_0_energy">    -14.22223385</i>
   </energy>
  </scstep>
  <structure>
   <crystal>
    <varray name="basis" >
     <v>      10.00000000       0.00000000       0.00000000 </v>
     <v>       0.00000000      10.00000000       0.00000000 </v>
     <v>       0.00000000       0.00000000      10.00000000 </v>
    </varray>
    <i name="volume">   1000.00000000</i>
    <varray name="rec_basis" >
     <v>       0.10000000       0.00000000       0.00000000 </v>
     <v>       0.00000000       0.10000000       0.00000000 </v>
     <v>       0.00000000       0.00000000       0.10000000 </v>
    </varray>
   </crystal>
   <varray name="positions" >
    <v>       0.41429042       0.62573423       0.53303375 </v>
    <v>       0.32388084       0.59284699       0.51850569 </v>
    <v>       0.47034736       0.54648235       0.52640329 </v>
   </varray>
  </structure>
  <varray name="forces" >
   <v>      -0.01750792      -0.04322477      -0.00405909 </v>
   <v>       0.04329945       0.01110228       0.00381932 </v>
   <v>      -0.02579153       0.03212248       0.00023977 </v>
  </varray>
  <varray name="stress" >
   <v>      -0.19316571       0.00845162      -0.00200919 </v>
   <v>       0.00845169      -0.19001941       0.00043918 </v>
   <v>      -0.00200609       0.00044930      -0.14741560 </v>
  </varray>
  <energy>
   <i name="e_fr_energy">    -14.22223385</i>
   <i name="e_wo_entrp">    -14.22223385</i>
   <i name="e_0_energy">      0.00000000</i>
   <i name="kinetic">      0.01555784</i>
   <i name="nosepot">      0.00000000</i>
   <i name="nosekinetic">      0.00000000</i>
   <i name="total">    -14.20667601</i>
  </energy>
 </calculation>
 <calculation>
  <scstep>
   <time name="diag">    0.09    0.09</time>
   <time name="diis">    0.30    0.30</time>
   <time name="orth">    0.00    0.00</time>
   <time name="total">    0.90    0.90</time>
   <energy>
    <i name="alphaZ">      0.22422278</i>
    <i name="ewald">     57.09730356</i>
    <i name="hartreedc">   -451.70546978</i>
    <i name="XCdc">     34.08620866</i>
    <i name="pawpsdc">    325.73829877</i>
    <i name="pawaedc">   -327.88848910</i>
    <i name="eentropy">      0.00000000</i>
    <i name="bandstr">   -109.10352882</i>
    <i name="atom">    457.32929435</i>
    <i name="e_fr_energy">    -14.22215957</i>
    <i name="e_wo_entrp">    -14.22215957</i>
    <i name="e_0_energy">    -14.22215957</i>
   </energy>
  </scstep>
  <scstep>
   <time name="diag">    0.09    0.09</time>
   <time name="diis">    0.30    0.30</time>
   <time name="orth">    0.00    0.00</time>
   <time name="total">    0.98    0.99</time>
   <energy>
    <i name="e_fr_energy">    -14.22215721</i>
    <i name="e_wo_entrp">    -14.22215721</i>
    <i name="e_0_energy">    -14.22215721</i>
   </energy>
  </scstep>
  <scstep>
   <time name="diag">    0.09    0.09</time>
   <time name="diis">    0.29    0.29</time>
   <time name="orth">    0.00    0.00</time>
   <time name="total">    0.98    0.99</time>
   <energy>
    <i name="e_fr_energy">    -14.22215698</i>
    <i name="e_wo_entrp">    -14.22215698</i>
    <i name="e_0_energy">    -14.22215698</i>
   </energy>
  </scstep>
  <scstep>
   <time name="diag">    0.09    0.09</time>
   <time name="diis">    0.30    0.30</time>
   <time name="orth">    0.00    0.00</time>
   <time name="total">    0.76    0.77</time>
   <energy>
    <i name="alphaZ">      0.22422278</i>
    <i name="ewald">     57.09730356</i>
    <i name="hartreedc">   -451.74608143</i>
    <i name="XCdc">     34.08839519</i>
    <i name="pawpsdc">    325.79428577</i>
    <i name="pawaedc">   -327.94493180</i>
    <i name="eentropy">      0.00000000</i>
    <i name="bandstr">   -109.06464588</i>
    <i name="atom">    457.32929435</i>
    <i name="e_fr_energy">    -14.22215745</i>
    <i name="e_wo_entrp">    -14.22215745</i>
    <i name="e_0_energy">    -14.22215745</i>
   </energy>
  </scstep>
  <structure>
   <crystal>
    <varray name="basis" >
     <v>      10.00000000       0.00000000       0.00000000 </v>
     <v>       0.00000000      10.00000000       0.00000000 </v>
     <v>       0.00000000       0.00000000      10.00000000 </v>
    </varray>
    <i name="volume">   1000.00000000</i>
    <varray name="rec_basis" >
     <v>       0.10000000       0.00000000       0.00000000 </v>
     <v>       0.00000000       0.10000000       0.00000000 </v>
     <v>       0.00000000       0.00000000       0.10000000 </v>
    </varray>
   </crystal>
   <varray name="positions" >
    <v>       0.41428446       0.62571955       0.53303095 </v>
    <v>       0.32411621       0.59291315       0.51853947 </v>
    <v>       0.47020751       0.54665097       0.52641431 </v>
   </varray>
  </structure>
  <varray name="forces" >
   <v>       0.03249840       0.07902419       0.02019505 </v>
   <v>      -0.07740342      -0.02450589      -0.01397832 </v>
   <v>       0.04490502      -0.05451830      -0.00621673 </v>
  </varray>
  <varray name="stress" >
   <v>       0.05369094      -0.01867954       0.01845834 </v>
   <v>      -0.01867901      -0.05450809       0.01812157 </v>
   <v>       0.01846096       0.01813139      -0.13668706 </v>
  </varray>
  <energy>
   <i name="e_fr_energy">    -14.22215745</i>
   <i name="e_wo_entrp">    -14.22215745</i>
   <i name="e_0_energy">      0.00000000</i>
   <i name="kinetic">      0.01547606</i>
   <i name="nosepot">      0.00000000</i>
   <i name="nosekinetic">      0.00000000</i>
   <i name="total">    -14.20668139</i>
  </energy>
 </calculation>
 <calculation>
  <scstep>
   <time name="diag">    0.09    0.09</time>
   <time name="diis">    0.29    0.30</time>
   <time name="orth">    0.00    0.00</time>
   <time name="total">    0.90    0.90</time>
   <energy>
    <i name="alphaZ">      0.22422278</i>
    <i name="ewald">     57.55893836</i>
    <i name="hartreedc">   -452.14010489</i>
    <i name="XCdc">     34.10851181</i>
    <i name="pawpsdc">    326.50232669</i>
    <i name="pawaedc">   -328.65637282</i>
    <i name="eentropy">      0.00000000</i>
    <i name="bandstr">   -109.14832791</i>
    <i name="atom">    457.32929435</i>
    <i name="e_fr_energy">    -14.22151163</i>
    <i name="e_wo_entrp">    -14.22151163</i>
    <i name="e_0_energy">    -14.22151163</i>
   </energy>
  </scstep>
  <scstep>
   <time name="diag">    0.09    0.09</time>
   <time name="diis">    0.29    0.30</time>
   <time name="orth">    0.00    0.00</time>
   <time name="total">    0.99    0.99</time>
   <energy>
    <i name="e_fr_energy">    -14.22150739</i>
    <i name="e_wo_entrp">    -14.22150739</i>
    <i name="e_0_energy">    -14.22150739</i>
   </energy>
  </scstep>
  <scstep>
   <time name="diag">    0.09    0.09</time>
   <time name="diis">    0.30    0.30</time>
   <time name="orth">    0.00    0.00</time>
   <time name="total">    0.99    2.45</time>
   <energy>
    <i name="e_fr_energy">    -14.22150730</i>
    <i name="e_wo_entrp">    -14.22150730</i>
    <i name="e_0_energy">    -14.22150730</i>
   </energy>
  </scstep>
  <scstep>
   <time name="diag">    0.09    0.09</time>
   <time name="diis">    0.29    0.29</time>
   <time name="orth">    0.00    0.00</time>
   <time name="total">    0.76    0.76</time>
   <energy>
    <i name="alphaZ">      0.22422278</i>
    <i name="ewald">     57.55893836</i>
    <i name="hartreedc">   -452.10051004</i>
    <i name="XCdc">     34.10637514</i>
    <i name="pawpsdc">    326.45120802</i>
    <i name="pawaedc">   -328.60485083</i>
    <i name="eentropy">      0.00000000</i>
    <i name="bandstr">   -109.18618524</i>
    <i name="atom">    457.32929435</i>
    <i name="e_fr_energy">    -14.22150746</i>
    <i name="e_wo_entrp">    -14.22150746</i>
    <i name="e_0_energy">    -14.22150746</i>
   </energy>
  </scstep>
  <structure>
   <crystal>
    <varray name="basis" >
     <v>      10.00000000       0.00000000       0.00000000 </v>
     <v>       0.00000000      10.00000000       0.00000000 </v>
     <v>       0.00000000       0.00000000      10.00000000 </v>
    </varray>
    <i name="volume">   1000.00000000</i>
    <varray name="rec_basis" >
     <v>       0.10000000       0.00000000       0.00000000 </v>
     <v>       0.00000000       0.10000000       0.00000000 </v>
     <v>       0.00000000       0.00000000       0.10000000 </v>
    </varray>
   </crystal>
   <varray name="positions" >
    <v>       0.41427856       0.62570506       0.53302820 </v>
    <v>       0.32434877       0.59297842       0.51857275 </v>
    <v>       0.47006929       0.54681762       0.52642511 </v>
   </varray>
  </structure>
  <varray name="forces" >
   <v>       0.08223922       0.19838716       0.04401678 </v>
   <v>      -0.19897932      -0.05955633      -0.03253202 </v>
   <v>       0.11674010      -0.13883083      -0.01148476 </v>
  </varray>
  <varray name="stress" >
   <v>       0.28108702      -0.04388620       0.03986523 </v>
   <v>      -0.04388631       0.06103565       0.03444817 </v>
   <v>       0.03986790       0.03445831      -0.14368884 </v>
  </varray>
  <energy>
   <i name="e_fr_energy">    -14.22150746</i>
   <i name="e_wo_entrp">    -14.22150746</i>
   <i name="e_0_energy">      0.00000000</i>
   <i name="kinetic">      0.01482442</i>
   <i name="nosepot">      0.00000000</i>
   <i name="nosekinetic">      0.00000000</i>
   <i name="total">    -14.20668304</i>
  </energy>
 </calculation>
 <calculation>
  <scstep>
   <time name="diag">    0.09    0.09</time>
   <time name="diis">    0.30    0.30</time>
   <time name="orth">    0.00    0.00</time>
   <time name="total">    0.90    0.90</time>
   <energy>
    <i name="alphaZ">      0.22422278</i>
    <i name="ewald">     58.00857832</i>
    <i name="hartreedc">   -452.42227157</i>
    <i name="XCdc">     34.12260727</i>
    <i name="pawpsdc">    327.06948939</i>
    <i name="pawaedc">   -329.22587754</i>
    <i name="eentropy">      0.00000000</i>
    <i name="bandstr">   -109.32636859</i>
    <i name="atom">    457.32929435</i>
    <i name="e_fr_energy">    -14.22032559</i>
    <i name="e_wo_entrp">    -14.22032559</i>
    <i name="e_0_energy">    -14.22032559</i>
   </energy>
  </scstep>
  <scstep>
   <time name="diag">    0.09    0.09</time>
   <time name="diis">    0.29    0.29</time>
   <time name="orth">    0.00    0.00</time>
   <time name="total">    1.00    1.00</time>
   <energy>
    <i name="e_fr_energy">    -14.22032483</i>
    <i name="e_wo_entrp">    -14.22032483</i>
    <i name="e_0_energy">    -14.22032483</i>
   </energy>
  </scstep>
  <scstep>
   <time name="diag">    0.09    0.09</time>
   <time name="diis">    0.28    0.29</time>
   <time name="orth">    0.00    0.00</time>
   <time name="total">    0.98    0.99</time>
   <energy>
    <i name="e_fr_energy">    -14.22032455</i>
    <i name="e_wo_entrp">    -14.22032455</i>
    <i name="e_0_energy">    -14.22032455</i>
   </energy>
  </scstep>
  <scstep>
   <time name="diag">    0.09    0.09</time>
   <time name="diis">    0.34    0.34</time>
   <time name="orth">    0.00    0.00</time>
   <time name="total">    0.81    0.81</time>
   <energy>
    <i name="alphaZ">      0.22422278</i>
    <i name="ewald">     58.00857832</i>
    <i name="hartreedc">   -452.44861937</i>
    <i name="XCdc">     34.12406816</i>
    <i name="pawpsdc">    327.10163803</i>
    <i name="pawaedc">   -329.25819644</i>
    <i name="eentropy">      0.00000000</i>
    <i name="bandstr">   -109.30131040</i>
    <i name="atom">    457.32929435</i>
    <i name="e_fr_energy">    -14.22032457</i>
    <i name="e_wo_entrp">    -14.22032457</i>
    <i name="e_0_energy">    -14.22032457</i>
   </energy>
  </scstep>
  <structure>
   <crystal>
    <varray name="basis" >
     <v>      10.00000000       0.00000000       0.00000000 </v>
     <v>       0.00000000      10.00000000       0.00000000 </v>
     <v>       0.00000000       0.00000000      10.00000000 </v>
    </varray>
    <i name="volume">   1000.00000000</i>
    <varray name="rec_basis" >
     <v>       0.10000000       0.00000000       0.00000000 </v>
     <v>       0.00000000       0.10000000       0.00000000 </v>
     <v>       0.00000000       0.00000000       0.10000000 </v>
    </varray>
   </crystal>
   <varray name="positions" >
    <v>       0.41427285       0.62569101       0.53302554 </v>
    <v>       0.32457415       0.59304154       0.51860485 </v>
    <v>       0.46993528       0.54697926       0.52643549 </v>
   </varray>
  </structure>
  <varray name="forces" >
   <v>       0.13107921       0.31718346       0.06738484 </v>
   <v>      -0.31706773      -0.09479297      -0.05051879 </v>
   <v>       0.18598851      -0.22239049      -0.01686605 </v>
  </varray>
  <varray name="stress" >
   <v>       0.53876724      -0.06957718       0.05994261 </v>
   <v>      -0.06957698       0.20950405       0.05020344 </v>
   <v>       0.05994590       0.05021344      -0.11034352 </v>
  </varray>
  <energy>
   <i name="e_fr_energy">    -14.22032457</i>
   <i name="e_wo_entrp">    -14.22032457</i>
   <i name="e_0_energy">      0.00000000</i>
   <i name="kinetic">      0.01364642</i>
   <i name="nosepot">      0.00000000</i>
   <i name="nosekinetic">      0.00000000</i>
   <i name="total">    -14.20667815</i>
  </energy>
 </calculation>
 <calculation>
  <scstep>
   <time name="diag">    0.09    0.09</time>
   <time name="diis">    0.35    0.35</time>
   <time name="orth">    0.00    0.00</time>
   <time name="total">    0.95    0.96</time>
   <energy>
    <i name="alphaZ">      0.22422278</i>
    <i name="ewald">     58.43747892</i>
    <i name="hartreedc">   -452.80022227</i>
    <i name="XCdc">     34.14204814</i>
    <i name="pawpsdc">    327.75489288</i>
    <i name="pawaedc">   -329.91434890</i>
    <i name="eentropy">      0.00000000</i>
    <i name="bandstr">   -109.39205541</i>
    <i name="atom">    457.32929435</i>
    <i name="e_fr_energy">    -14.21868950</i>
    <i name="e_wo_entrp">    -14.21868950</i>
    <i name="e_0_energy">    -14.21868950</i>
   </energy>
  </scstep>
  <scstep>
   <time name="diag">    0.09    0.09</time>
   <time name="diis">    0.30    0.30</time>
   <time name="orth">    0.00    0.00</time>
   <time name="total">    1.00    1.01</time>
   <energy>
    <i name="e_fr_energy">    -14.21869046</i>
    <i name="e_wo_entrp">    -14.21869046</i>
    <i name="e_0_energy">    -14.21869046</i>
   </energy>
  </scstep>
  <scstep>
   <time name="diag">    0.09    0.09</time>
   <time name="diis">    0.28    0.28</time>
   <time name="orth">    0.00    0.00</time>
   <time name="total">    0.99    0.99</time>
   <energy>
    <i name="e_fr_energy">    -14.21869016</i>
    <i name="e_wo_entrp">    -14.21869016</i>
    <i name="e_0_energy">    -14.21869016</i>
   </energy>
  </scstep>
  <scstep>
   <time name="diag">    0.09    0.09</time>
   <time name="diis">    0.29    0.29</time>
   <time name="orth">    0.00    0.00</time>
   <time name="total">    0.77    0.77</time>
   <energy>
    <i name="alphaZ">      0.22422278</i>
    <i name="ewald">     58.43747892</i>
    <i name="hartreedc">   -452.78296346</i>
    <i name="XCdc">     34.14109150</i>
    <i name="pawpsdc">    327.72659965</i>
    <i name="pawaedc">   -329.88595526</i>
    <i name="eentropy">      0.00000000</i>
    <i name="bandstr">   -109.40845855</i>
    <i name="atom">    457.32929435</i>
    <i name="e_fr_energy">    -14.21869007</i>
    <i name="e_wo_entrp">    -14.21869007</i>
    <i name="e_0_energy">    -14.21869007</i>
   </energy>
  </scstep>
  <structure>
   <crystal>
    <varray name="basis" >
     <v>      10.00000000       0.00000000       0.00000000 </v>
     <v>       0.00000000      10.00000000       0.00000000 </v>
     <v>       0.00000000       0.00000000      10.00000000 </v>
    </varray>
    <i name="volume">   1000.00000000</i>
    <varray name="rec_basis" >
     <v>       0.10000000       0.00000000       0.00000000 </v>
     <v>       0.00000000       0.10000000       0.00000000 </v>
     <v>       0.00000000       0.00000000       0.10000000 </v>
    </varray>
   </crystal>
   <varray name="positions" >
    <v>       0.41426743       0.62567768       0.53302304 </v>
    <v>       0.32478807       0.59310124       0.51863513 </v>
    <v>       0.46980799       0.54713286       0.52644527 </v>
   </varray>
  </structure>
  <varray name="forces" >
   <v>       0.17880744       0.43409287       0.09098365 </v>
   <v>      -0.43258547      -0.12879316      -0.06777480 </v>
   <v>       0.25377803      -0.30529971      -0.02320884 </v>
  </varray>
  <varray name="stress" >
   <v>       0.75997863      -0.09508723       0.07878852 </v>
   <v>      -0.09508702       0.32552462       0.06707500 </v>
   <v>       0.07879182       0.06708488      -0.10876050 </v>
  </varray>
  <energy>
   <i name="e_fr_energy">    -14.21869007</i>
   <i name="e_wo_entrp">    -14.21869007</i>
   <i name="e_0_energy">      0.00000000</i>
   <i name="kinetic">      0.01202036</i>
   <i name="nosepot">      0.00000000</i>
   <i name="nosekinetic">      0.00000000</i>
   <i name="total">    -14.20666971</i>
  </energy>
 </calculation>
 <calculation>
  <scstep>
   <time name="diag">    0.09    0.09</time>
   <time name="diis">    0.30    0.30</time>
   <time name="orth">    0.00    0.00</time>
   <time name="total">    0.90    0.90</time>
   <energy>
    <i name="alphaZ">      0.22422278</i>
    <i name="ewald">     58.83690333</i>
    <i name="hartreedc">   -453.09773584</i>
    <i name="XCdc">     34.15715456</i>
    <i name="pawpsdc">    328.31786320</i>
    <i name="pawaedc">   -330.47998263</i>
    <i name="eentropy">      0.00000000</i>
    <i name="bandstr">   -109.50444242</i>
    <i name="atom">    457.32929435</i>
    <i name="e_fr_energy">    -14.21672267</i>
[...]
   <v>       0.34165007       0.10895527       0.10038583 </v>
   <v>      -0.34128779       0.35421323       0.06248238 </v>
  </varray>
  <varray name="stress" >
   <v>      -0.91197961       0.20594750      -0.07024517 </v>
   <v>       0.20594809      -0.60721478      -0.12471140 </v>
   <v>      -0.07024302      -0.12470173      -0.19315534 </v>
  </varray>
  <energy>
   <i name="e_fr_energy">    -14.21828523</i>
   <i name="e_wo_entrp">    -14.21828523</i>
   <i name="e_0_energy">      0.00000000</i>
   <i name="kinetic">      0.01192501</i>
   <i name="nosepot">      0.00000000</i>
   <i name="nosekinetic">      0.00000000</i>
   <i name="total">    -14.20636021</i>
  </energy>
 </calculation>
 <calculation>
  <scstep>
   <time name="diag">    0.13    0.14</time>
   <time name="diis">    0.46    0.46</time>
   <time name="orth">    0.01    0.01</time>
   <time name="total">    1.34    1.34</time>
   <energy>
    <i name="alphaZ">      0.22422278</i>
    <i name="ewald">     55.47718507</i>
    <i name="hartreedc">   -450.46655769</i>
    <i name="XCdc">     34.02344842</i>
    <i name="pawpsdc">    323.47411908</i>
    <i name="pawaedc">   -325.61377823</i>
    <i name="eentropy">      0.00000000</i>
    <i name="bandstr">   -108.66788633</i>
    <i name="atom">    457.32929435</i>
    <i name="e_fr_energy">    -14.21995254</i>
    <i name="e_wo_entrp">    -14.21995254</i>
    <i name="e_0_energy">    -14.21995254</i>
   </energy>
  </scstep>
  <scstep>
   <time name="diag">    0.14    0.14</time>
   <time name="diis">    0.44    0.44</time>
   <time name="orth">    0.00    0.01</time>
   <time name="total">    1.49    1.50</time>
   <energy>
    <i name="e_fr_energy">    -14.21995305</i>
    <i name="e_wo_entrp">    -14.21995305</i>
    <i name="e_0_energy">    -14.21995305</i>
   </energy>
  </scstep>
  <scstep>
   <time name="diag">    0.14    0.14</time>
   <time name="diis">    0.43    0.43</time>
   <time name="orth">    0.01    0.01</time>
   <time name="total">    1.47    1.48</time>
   <energy>
    <i name="e_fr_energy">    -14.21995319</i>
    <i name="e_wo_entrp">    -14.21995319</i>
    <i name="e_0_energy">    -14.21995319</i>
   </energy>
  </scstep>
  <scstep>
   <time name="diag">    0.14    0.14</time>
   <time name="diis">    0.43    0.43</time>
   <time name="orth">    0.00    0.01</time>
   <time name="total">    1.08    1.08</time>
   <energy>
    <i name="alphaZ">      0.22422278</i>
    <i name="ewald">     55.47718507</i>
    <i name="hartreedc">   -450.47059630</i>
    <i name="XCdc">     34.02369319</i>
    <i name="pawpsdc">    323.47811804</i>
    <i name="pawaedc">   -325.61777601</i>
    <i name="eentropy">      0.00000000</i>
    <i name="bandstr">   -108.66409435</i>
    <i name="atom">    457.32929435</i>
    <i name="e_fr_energy">    -14.21995324</i>
    <i name="e_wo_entrp">    -14.21995324</i>
    <i name="e_0_energy">    -14.21995324</i>
   </energy>
  </scstep>
  <structure>
   <crystal>
    <varray name="basis" >
     <v>      10.00000000       0.00000000       0.00000000 </v>
     <v>       0.00000000      10.00000000       0.00000000 </v>
     <v>       0.00000000       0.00000000      10.00000000 </v>
    </varray>
    <i name="volume">   1000.00000000</i>
    <varray name="rec_basis" >
     <v>       0.10000000       0.00000000       0.00000000 </v>
     <v>       0.00000000       0.10000000       0.00000000 </v>
     <v>       0.00000000       0.00000000       0.10000000 </v>
    </varray>
   </crystal>
   <varray name="positions" >
    <v>       0.41366440       0.62557571       0.53428772 </v>
    <v>       0.32742453       0.58982122       0.50521704 </v>
    <v>       0.47682010       0.55204441       0.51962842 </v>
   </varray>
  </structure>
  <varray name="forces" >
   <v>       0.01725065      -0.35974792      -0.12267065 </v>
   <v>       0.25215600       0.07966035       0.07298744 </v>
   <v>      -0.26940665       0.28008757       0.04968321 </v>
  </varray>
  <varray name="stress" >
   <v>      -0.71246491       0.17129776      -0.04487292 </v>
   <v>       0.17129751      -0.50312241      -0.09470674 </v>
   <v>      -0.04487062      -0.09469656      -0.17573006 </v>
  </varray>
  <energy>
   <i name="e_fr_energy">    -14.21995324</i>
   <i name="e_wo_entrp">    -14.21995324</i>
   <i name="e_0_energy">      0.00000000</i>
   <i name="kinetic">      0.01358574</i>
   <i name="nosepot">      0.00000000</i>
   <i name="nosekinetic">      0.00000000</i>
   <i name="total">    -14.20636750</i>
  </energy>
 </calculation>
 <calculation>
  <scstep>
   <time name="diag">    0.13    0.13</time>
   <time name="diis">    0.43    0.43</time>
   <time name="orth">    0.00    0.00</time>
   <time name="total">    1.26    1.26</time>
   <energy>
    <i name="alphaZ">      0.22422278</i>
    <i name="ewald">     55.91062541</i>
    <i name="hartreedc">   -450.81531764</i>
    <i name="XCdc">     34.04120419</i>
    <i name="pawpsdc">    324.09673593</i>
    <i name="pawaedc">   -326.23927911</i>
    <i name="eentropy">      0.00000000</i>
    <i name="bandstr">   -108.76872716</i>
    <i name="atom">    457.32929435</i>
    <i name="e_fr_energy">    -14.22124125</i>
    <i name="e_wo_entrp">    -14.22124125</i>
    <i name="e_0_energy">    -14.22124125</i>
   </energy>
  </scstep>
  <scstep>
   <time name="diag">    0.13    0.13</time>
   <time name="diis">    0.42    0.42</time>
   <time name="orth">    0.00    0.00</time>
   <time name="total">    1.33    1.35</time>
   <energy>
    <i name="e_fr_energy">    -14.22124135</i>
    <i name="e_wo_entrp">    -14.22124135</i>
    <i name="e_0_energy">    -14.22124135</i>
   </energy>
  </scstep>
  <scstep>
   <time name="diag">    0.12    0.12</time>
   <time name="diis">    0.41    0.42</time>
   <time name="orth">    0.00    0.00</time>
   <time name="total">    1.31    1.31</time>
   <energy>
    <i name="e_fr_energy">    -14.22124137</i>
    <i name="e_wo_entrp">    -14.22124137</i>
    <i name="e_0_energy">    -14.22124137</i>
   </energy>
  </scstep>
  <scstep>
   <time name="diag">    0.12    0.12</time>
   <time name="diis">    0.41    0.41</time>
   <time name="orth">    0.01    0.01</time>
   <time name="total">    0.99    0.99</time>
   <energy>
    <i name="alphaZ">      0.22422278</i>
    <i name="ewald">     55.91062541</i>
    <i name="hartreedc">   -450.81188011</i>
    <i name="XCdc">     34.04100167</i>
    <i name="pawpsdc">    324.09015426</i>
    <i name="pawaedc">   -326.23262218</i>
    <i name="eentropy">      0.00000000</i>
    <i name="bandstr">   -108.77203760</i>
    <i name="atom">    457.32929435</i>
    <i name="e_fr_energy">    -14.22124142</i>
    <i name="e_wo_entrp">    -14.22124142</i>
    <i name="e_0_energy">    -14.22124142</i>
   </energy>
  </scstep>
  <structure>
   <crystal>
    <varray name="basis" >
     <v>      10.00000000       0.00000000       0.00000000 </v>
     <v>       0.00000000      10.00000000       0.00000000 </v>
     <v>       0.00000000       0.00000000      10.00000000 </v>
    </varray>
    <i name="volume">   1000.00000000</i>
    <varray name="rec_basis" >
     <v>       0.10000000       0.00000000       0.00000000 </v>
     <v>       0.00000000       0.10000000       0.00000000 </v>
     <v>       0.00000000       0.00000000       0.10000000 </v>
    </varray>
   </crystal>
   <varray name="positions" >
    <v>       0.41366041       0.62556077       0.53428569 </v>
    <v>       0.32763080       0.58987845       0.50523800 </v>
    <v>       0.47667765       0.55222621       0.51963993 </v>
   </varray>
  </structure>
  <varray name="forces" >
   <v>       0.03509538      -0.24974862      -0.08053630 </v>
   <v>       0.15631880       0.04859699       0.04446793 </v>
   <v>      -0.19141418       0.20115163       0.03606836 </v>
  </varray>
  <varray name="stress" >
   <v>      -0.50091297       0.13403579      -0.01857959 </v>
   <v>       0.13403586      -0.39133473      -0.06110881 </v>
   <v>      -0.01857755      -0.06109890      -0.15936408 </v>
  </varray>
  <energy>
   <i name="e_fr_energy">    -14.22124142</i>
   <i name="e_wo_entrp">    -14.22124142</i>
   <i name="e_0_energy">      0.00000000</i>
   <i name="kinetic">      0.01486751</i>
   <i name="nosepot">      0.00000000</i>
   <i name="nosekinetic">      0.00000000</i>
   <i name="total">    -14.20637391</i>
  </energy>
 </calculation>
 <calculation>
  <scstep>
   <time name="diag">    0.12    0.12</time>
   <time name="diis">    0.43    0.43</time>
   <time name="orth">    0.00    0.00</time>
   <time name="total">    1.21    1.22</time>
   <energy>
    <i name="alphaZ">      0.22422278</i>
    <i name="ewald">     56.36219880</i>
    <i name="hartreedc">   -451.16435744</i>
    <i name="XCdc">     34.05886893</i>
    <i name="pawpsdc">    324.72418133</i>
    <i name="pawaedc">   -326.86956192</i>
    <i name="eentropy">      0.00000000</i>
    <i name="bandstr">   -108.88689891</i>
    <i name="atom">    457.32929435</i>
    <i name="e_fr_energy">    -14.22205208</i>
    <i name="e_wo_entrp">    -14.22205208</i>
    <i name="e_0_energy">    -14.22205208</i>
   </energy>
  </scstep>
  <scstep>
   <time name="diag">    0.12    0.13</time>
   <time name="diis">    0.42    0.42</time>
   <time name="orth">    0.00    0.00</time>
   <time name="total">    1.30    1.30</time>
   <energy>
    <i name="e_fr_energy">    -14.22205276</i>
    <i name="e_wo_entrp">    -14.22205276</i>
    <i name="e_0_energy">    -14.22205276</i>
   </energy>
  </scstep>
  <scstep>
   <time name="diag">    0.12    0.12</time>
   <time name="diis">    0.41    0.41</time>
   <time name="orth">    0.00    0.00</time>
   <time name="total">    1.29    1.29</time>
   <energy>
    <i name="e_fr_energy">    -14.22205282</i>
    <i name="e_wo_entrp">    -14.22205282</i>
    <i name="e_0_energy">    -14.22205282</i>
   </energy>
  </scstep>
  <scstep>
   <time name="diag">    0.12    0.12</time>
   <time name="diis">    0.41    0.41</time>
   <time name="orth">    0.00    0.00</time>
   <time name="total">    1.03    1.04</time>
   <energy>
    <i name="alphaZ">      0.22422278</i>
    <i name="ewald">     56.36219880</i>
    <i name="hartreedc">   -451.16492514</i>
    <i name="XCdc">     34.05889418</i>
    <i name="pawpsdc">    324.72911672</i>
    <i name="pawaedc">   -326.87454995</i>
    <i name="eentropy">      0.00000000</i>
    <i name="bandstr">   -108.88630463</i>
    <i name="atom">    457.32929435</i>
    <i name="e_fr_energy">    -14.22205290</i>
    <i name="e_wo_entrp">    -14.22205290</i>
    <i name="e_0_energy">    -14.22205290</i>
   </energy>
  </scstep>
  <structure>
   <crystal>
    <varray name="basis" >
     <v>      10.00000000       0.00000000       0.00000000 </v>
     <v>       0.00000000      10.00000000       0.00000000 </v>
     <v>       0.00000000       0.00000000      10.00000000 </v>
    </varray>
    <i name="volume">   1000.00000000</i>
    <varray name="rec_basis" >
     <v>       0.10000000       0.00000000       0.00000000 </v>
     <v>       0.00000000       0.10000000       0.00000000 </v>
     <v>       0.00000000       0.00000000       0.10000000 </v>
    </varray>
   </crystal>
   <varray name="positions" >
    <v>       0.41365650       0.62554527       0.53428348 </v>
    <v>       0.32784272       0.58993744       0.50526056 </v>
    <v>       0.47652827       0.55241528       0.51965274 </v>
   </varray>
  </structure>
  <varray name="forces" >
   <v>       0.05186937      -0.13422760      -0.03515815 </v>
   <v>       0.05698781       0.01652784       0.01375433 </v>
   <v>      -0.10885718       0.11769976       0.02140382 </v>
  </varray>
  <varray name="stress" >
   <v>      -0.28154597       0.09372755       0.00836569 </v>
   <v>       0.09372791      -0.27384329      -0.02616152 </v>
   <v>       0.00836763      -0.02615187      -0.14229485 </v>
  </varray>
  <energy>
   <i name="e_fr_energy">    -14.22205290</i>
   <i name="e_wo_entrp">    -14.22205290</i>
   <i name="e_0_energy">      0.00000000</i>
   <i name="kinetic">      0.01567439</i>
   <i name="nosepot">      0.00000000</i>
   <i name="nosekinetic">      0.00000000</i>
   <i name="total">    -14.20637851</i>
  </energy>
 </calculation>
 <calculation>
  <scstep>
   <time name="diag">    0.12    0.12</time>
   <time name="diis">    0.43    0.43</time>
   <time name="orth">    0.00    0.00</time>
   <time name="total">    1.16    1.16</time>
   <energy>
    <i name="alphaZ">      0.22422278</i>
    <i name="ewald">     56.82398103</i>
    <i name="hartreedc">   -451.52154000</i>
    <i name="XCdc">     34.07693665</i>
    <i name="pawpsdc">    325.37952967</i>
    <i name="pawaedc">   -327.52792380</i>
    <i name="eentropy">      0.00000000</i>
    <i name="bandstr">   -109.00681825</i>
    <i name="atom">    457.32929435</i>
    <i name="e_fr_energy">    -14.22231757</i>
    <i name="e_wo_entrp">    -14.22231757</i>
    <i name="e_0_energy">    -14.22231757</i>
   </energy>
  </scstep>
  <scstep>
   <time name="diag">    0.12    0.12</time>
   <time name="diis">    0.41    0.41</time>
   <time name="orth">    0.00    0.00</time>
   <time name="total">    1.30    1.30</time>
   <energy>
    <i name="e_fr_energy">    -14.22231759</i>
    <i name="e_wo_entrp">    -14.22231759</i>
    <i name="e_0_energy">    -14.22231759</i>
   </energy>
  </scstep>
  <scstep>
   <time name="diag">    0.12    0.12</time>
   <time name="diis">    0.41    0.41</time>
   <time name="orth">    0.00    0.00</time>
   <time name="total">    1.30    1.30</time>
   <energy>
    <i name="e_fr_energy">    -14.22231762</i>
    <i name="e_wo_entrp">    -14.22231762</i>
    <i name="e_0_energy">    -14.22231762</i>
   </energy>
  </scstep>
  <scstep>
   <time name="diag">    0.12    0.13</time>
   <time name="diis">    0.41    0.41</time>
   <time name="orth">    0.00    0.00</time>
   <time name="total">    0.98    0.99</time>
   <energy>
    <i name="alphaZ">      0.22422278</i>
    <i name="ewald">     56.82398103</i>
    <i name="hartreedc">   -451.52535157</i>
    <i name="XCdc">     34.07718338</i>
    <i name="pawpsdc">    325.38769734</i>
    <i name="pawaedc">   -327.53617996</i>
    <i name="eentropy">      0.00000000</i>
    <i name="bandstr">   -109.00316498</i>
    <i name="atom">    457.32929435</i>
    <i name="e_fr_energy">    -14.22231764</i>
    <i name="e_wo_entrp">    -14.22231764</i>
    <i name="e_0_energy">    -14.22231764</i>
   </energy>
  </scstep>
  <structure>
   <crystal>
    <varray name="basis" >
     <v>      10.00000000       0.00000000       0.00000000 </v>
     <v>       0.00000000      10.00000000       0.00000000 </v>
     <v>       0.00000000       0.00000000      10.00000000 </v>
    </varray>
    <i name="volume">   1000.00000000</i>
    <varray name="rec_basis" >
     <v>       0.10000000       0.00000000       0.00000000 </v>
     <v>       0.00000000       0.10000000       0.00000000 </v>
     <v>       0.00000000       0.00000000       0.10000000 </v>
    </varray>
   </crystal>
   <varray name="positions" >
    <v>       0.41365271       0.62552946       0.53428119 </v>
    <v>       0.32805670       0.58999702       0.50528363 </v>
    <v>       0.47637497       0.55260860       0.51966633 </v>
   </varray>
  </structure>
  <varray name="forces" >
   <v>       0.06709848      -0.01413167       0.01229118 </v>
   <v>      -0.04500151      -0.01570197      -0.01789633 </v>
   <v>      -0.02209697       0.02983364       0.00560515 </v>
  </varray>
  <varray name="stress" >
   <v>      -0.05402733       0.04949516       0.03493039 </v>
   <v>       0.04949582      -0.15089392       0.00975607 </v>
   <v>       0.03493250       0.00976502      -0.12330655 </v>
  </varray>
  <energy>
   <i name="e_fr_energy">    -14.22231764</i>
   <i name="e_wo_entrp">    -14.22231764</i>
   <i name="e_0_energy">      0.00000000</i>
   <i name="kinetic">      0.01594032</i>
   <i name="nosepot">      0.00000000</i>
   <i name="nosekinetic">      0.00000000</i>
   <i name="total">    -14.20637732</i>
  </energy>
 </calculation>
 <calculation>
  <scstep>
   <time name="diag">    0.12    0.13</time>
   <time name="diis">    0.42    0.43</time>
   <time name="orth">    0.00    0.00</time>
   <time name="total">    1.17    1.17</time>
   <energy>
    <i name="alphaZ">      0.22422278</i>
    <i name="ewald">     57.28756999</i>
    <i name="hartreedc">   -451.88819985</i>
    <i name="XCdc">     34.09564485</i>
    <i name="pawpsdc">    326.05614500</i>
    <i name="pawaedc">   -328.20773636</i>
    <i name="eentropy">      0.00000000</i>
    <i name="bandstr">   -109.11895278</i>
    <i name="atom">    457.32929435</i>
    <i name="e_fr_energy">    -14.22201200</i>
    <i name="e_wo_entrp">    -14.22201200</i>
    <i name="e_0_energy">    -14.22201200</i>
   </energy>
  </scstep>
  <scstep>
   <time name="diag">    0.12    0.12</time>
   <time name="diis">    0.42    0.42</time>
   <time name="orth">    0.01    0.00</time>
   <time name="total">    1.30    1.31</time>
   <energy>
    <i name="e_fr_energy">    -14.22201290</i>
    <i name="e_wo_entrp">    -14.22201290</i>
    <i name="e_0_energy">    -14.22201290</i>
   </energy>
  </scstep>
  <scstep>
   <time name="diag">    0.12    0.13</time>
   <time name="diis">    0.42    0.42</time>
   <time name="orth">    0.00    0.00</time>
   <time name="total">    1.31    1.31</time>
   <energy>
    <i name="e_fr_energy">    -14.22201329</i>
    <i name="e_wo_entrp">    -14.22201329</i>
    <i name="e_0_energy">    -14.22201329</i>
   </energy>
  </scstep>
  <scstep>
   <time name="diag">    0.12    0.13</time>
   <time name="diis">    0.41    0.42</time>
   <time name="orth">    0.00    0.00</time>
   <time name="total">    1.05    1.05</time>
   <energy>
    <i name="alphaZ">      0.22422278</i>
    <i name="ewald">     57.28756999</i>
    <i name="hartreedc">   -451.88525375</i>
    <i name="XCdc">     34.09545997</i>
    <i name="pawpsdc">    326.05141756</i>
    <i name="pawaedc">   -328.20291536</i>
    <i name="eentropy">      0.00000000</i>
    <i name="bandstr">   -109.12180888</i>
    <i name="atom">    457.32929435</i>
    <i name="e_fr_energy">    -14.22201335</i>
    <i name="e_wo_entrp">    -14.22201335</i>
    <i name="e_0_energy">    -14.22201335</i>
   </energy>
  </scstep>
  <structure>
   <crystal>
    <varray name="basis" >
     <v>      10.00000000       0.00000000       0.00000000 </v>
     <v>       0.00000000      10.00000000       0.00000000 </v>
     <v>       0.00000000       0.00000000      10.00000000 </v>
    </varray>
    <i name="volume">   1000.00000000</i>
    <varray name="rec_basis" >
     <v>       0.10000000       0.00000000       0.00000000 </v>
     <v>       0.00000000       0.10000000       0.00000000 </v>
     <v>       0.00000000       0.00000000       0.10000000 </v>
    </varray>
   </crystal>
   <varray name="positions" >
    <v>       0.41364907       0.62551362       0.53427893 </v>
    <v>       0.32826906       0.59005604       0.50530605 </v>
    <v>       0.47622086       0.55280300       0.51968012 </v>
   </varray>
  </structure>
  <varray name="forces" >
   <v>       0.08264122       0.11075942       0.05917612 </v>
   <v>      -0.14745868      -0.04964763      -0.04910793 </v>
   <v>       0.06481746      -0.06111178      -0.01006818 </v>
  </varray>
  <varray name="stress" >
   <v>       0.17253790       0.00655637       0.06258563 </v>
   <v>       0.00655673      -0.02867045       0.04628074 </v>
   <v>       0.06258783       0.04629070      -0.10759951 </v>
  </varray>
  <energy>
   <i name="e_fr_energy">    -14.22201335</i>
   <i name="e_wo_entrp">    -14.22201335</i>
   <i name="e_0_energy">      0.00000000</i>
   <i name="kinetic">      0.01563580</i>
   <i name="nosepot">      0.00000000</i>
   <i name="nosekinetic">      0.00000000</i>
   <i name="total">    -14.20637755</i>
  </energy>
 </calculation>
