<?xml version="1.0" encoding="ISO-8859-1"?>
<modeling>
 <generator>
  <i name="program" type="string">vasp</i>
  <i name="version" type="string">4.6.36 </i>
  <i name="subversion" type="string">17Feb09 complex  parallel</i>
  <i name="platform" type="string">LinuxPgi</i>
  <i name="date" type="string">2013 05 18</i>
  <i name="time" type="string">23:48:18</i>
 </generator>
 <incar>
  <i type="string" name="SYSTEM"> H2O</i>
  <i type="int" name="ISTART">     0</i>
  <i type="string" name="PREC">high</i>
  <i type="int" name="IALGO">    48</i>
  <i type="int" name="MAXMIX">    50</i>
  <i name="BMIX">      2.00000000</i>
  <i type="int" name="ICHARG">     2</i>
  <i type="int" name="NELMIN">     4</i>
  <i type="int" name="IBRION">     0</i>
  <i type="int" name="NSW">  2000</i>
  <i type="int" name="ISIF">     2</i>
  <i type="int" name="ISYM">     0</i>
  <i type="int" name="NBLOCK">     1</i>
  <i type="int" name="KBLOCK">   100</i>
  <i name="POTIM">      0.19350400</i>
  <i name="SMASS">     -3.00000000</i>
  <i type="string" name="LREAL"> A</i>
  <i type="int" name="ISMEAR">    -1</i>
  <i name="SIGMA">      0.02843723</i>
  <i type="int" name="NWRITE">     3</i>
 </incar>
 <kpoints>
  <generation param="Monkhorst-Pack">
   <v type="int" name="divisions">       1       1       1</v>
   <v name="usershift">      0.00000000       0.00000000       0.00000000 </v>
   <v name="genvec1">      1.00000000       0.00000000       0.00000000 </v>
   <v name="genvec2">      0.00000000       1.00000000       0.00000000 </v>
   <v name="genvec3">      0.00000000       0.00000000       1.00000000 </v>
   <v name="shift">      0.00000000       0.00000000       0.00000000 </v>
  </generation>
  <varray name="kpointlist" >
   <v>       0.00000000       0.00000000       0.00000000 </v>
  </varray>
  <varray name="weights" >
   <v>       1.00000000 </v>
  </varray>
 </kpoints>
 <parameters>
  <separator name="general" >
   <i type="string" name="SYSTEM">H2O</i>
   <i type="logical" name="LCOMPAT"> F  </i>
  </separator>
  <separator name="electronic" >
   <i type="string" name="PREC">high</i>
   <i name="ENMAX">    500.00000000</i>
   <i name="ENAUG">    605.39200000</i>
   <i name="EDIFF">      0.00010000</i>
   <i type="int" name="IALGO">    48</i>
   <i type="int" name="IWAVPR">    12</i>
   <i type="int" name="NBANDS">     8</i>
   <i name="NELECT">      8.00000000</i>
   <separator name="electronic smearing" >
    <i type="int" name="ISMEAR">    -1</i>
    <i name="SIGMA">      0.02843723</i>
   </separator>
   <separator name="electronic projectors" >
    <i type="logical" name="LREAL"> T  </i>
    <v name="ROPT">     -0.00040000     -0.00040000</v>
    <i type="int" name="LMAXPAW">  -100</i>
    <i type="int" name="LMAXMIX">     2</i>
   </separator>
   <separator name="electronic startup" >
    <i type="int" name="ISTART">     0</i>
    <i type="int" name="ICHARG">     2</i>
    <i type="int" name="INIWAV">     1</i>
   </separator>
   <separator name="electronic spin" >
    <i type="int" name="ISPIN">     1</i>
    <i type="logical" name="LNONCOLLINEAR"> F  </i>
    <v name="MAGMOM">      1.00000000      1.00000000      1.00000000</v>
    <i name="NUPDOWN">     -1.00000000</i>
    <i type="logical" name="LSORBIT"> F  </i>
    <v name="SAXIS">      0.00000000      0.00000000      1.00000000</v>
    <i type="logical" name="LSPIRAL"> F  </i>
    <v name="QSPIRAL">      0.00000000      0.00000000      0.00000000</v>
    <i type="logical" name="LZEROZ"> F  </i>
   </separator>
   <separator name="electronic exchange-correlation" >
    <i type="string" name="GGA">--</i>
    <i type="int" name="VOSKOWN">     0</i>
    <i type="logical" name="LASPH"> F  </i>
    <i type="logical" name="LMETAGGA"> F  </i>
    <i type="string" name="GGA2">--</i>
   </separator>
   <separator name="electronic convergence" >
    <i type="int" name="NELM">    60</i>
    <i type="int" name="NELMDL">   -12</i>
    <i type="int" name="NELMIN">     4</i>
    <i name="ENINI">    500.00000000</i>
    <separator name="electronic convergence detail" >
     <i type="logical" name="LDIAG"> T  </i>
     <i name="WEIMIN">      0.00100000</i>
     <i name="EBREAK">      0.00000313</i>
     <i name="DEPER">      0.30000000</i>
     <i type="int" name="NRMM">     4</i>
     <i name="TIME">      0.10000000</i>
    </separator>
   </separator>
   <separator name="electronic mixer" >
    <i name="AMIX">      0.40000000</i>
    <i name="BMIX">      2.00000000</i>
    <i name="AMIN">      0.10000000</i>
    <i name="AMIX_MAG">      1.60000000</i>
    <i name="BMIX_MAG">      2.00000000</i>
    <separator name="electronic mixer details" >
     <i type="int" name="IMIX">     4</i>
     <i type="int" name="MAXMIX">    50</i>
     <i name="WC">    100.00000000</i>
     <i type="int" name="INIMIX">     1</i>
     <i type="int" name="MIXPRE">     1</i>
     <i type="int" name="MREMOVE">     5</i>
    </separator>
   </separator>
   <separator name="electronic dipolcorrection" >
    <i type="int" name="IDIPOL">     0</i>
    <i type="logical" name="LDIPOL"> F  </i>
    <v name="DIPOL">   -100.00000000</v>
    <i name="EFIELD">      0.00000000</i>
   </separator>
  </separator>
  <separator name="grids" >
   <i type="int" name="NGX">    60</i>
   <i type="int" name="NGY">    60</i>
   <i type="int" name="NGZ">    60</i>
   <i type="int" name="NGXF">    90</i>
   <i type="int" name="NGYF">    90</i>
   <i type="int" name="NGZF">    90</i>
   <i type="logical" name="ADDGRID"> F  </i>
  </separator>
  <separator name="ionic" >
   <i type="int" name="NSW">  2000</i>
   <i type="int" name="IBRION">     0</i>
   <i type="int" name="ISIF">     2</i>
   <i name="PSTRESS">      0.00000000</i>
   <i name="EDIFFG">      0.00100000</i>
   <i type="int" name="NFREE">     0</i>
   <i name="POTIM">      0.19350400</i>
   <i name="SMASS">     -3.00000000</i>
  </separator>
  <separator name="ionic md" >
   <i name="TEBEG">      0.00010000</i>
   <i name="TEEND">      0.00010000</i>
   <i type="int" name="NBLOCK">     1</i>
   <i type="int" name="KBLOCK">   100</i>
   <i type="int" name="NPACO">   256</i>
   <i name="APACO">     16.00000000</i>
  </separator>
  <separator name="symmetry" >
   <i type="int" name="ISYM">     0</i>
   <i name="SYMPREC">      0.00001000</i>
  </separator>
  <separator name="dos" >
   <i type="logical" name="LORBIT"> T  </i>
   <v name="RWIGS">     -1.00000000     -1.00000000</v>
   <i type="int" name="NEDOS">   301</i>
   <i name="EMIN">     10.00000000</i>
   <i name="EMAX">    -10.00000000</i>
  </separator>
  <separator name="writing" >
   <i type="int" name="NWRITE">     3</i>
   <i type="logical" name="LWAVE"> T  </i>
   <i type="logical" name="LCHARG"> T  </i>
   <i type="logical" name="LPARD"> F  </i>
   <i type="logical" name="LVTOT"> F  </i>
   <i type="logical" name="LELF"> F  </i>
   <i type="logical" name="LOPTICS"> F  </i>
   <v name="STM">      0.00000000      0.00000000      0.00000000      0.00000000      0.00000000</v>
  </separator>
  <separator name="performance" >
   <i type="int" name="NPAR">     8</i>
   <i type="int" name="NSIM">     4</i>
   <i type="int" name="NBLK">   256</i>
   <i type="logical" name="LPLANE"> T  </i>
   <i type="logical" name="LCRITICAL_MEM"> F  </i>
   <i type="logical" name="LSCALAPACK"> F  </i>
   <i type="logical" name="LSCALU"> F  </i>
   <i type="logical" name="LASYNC"> F  </i>
  </separator>
  <separator name="miscellaneous" >
   <i type="int" name="IDIOT">     3</i>
   <i type="logical" name="LMUSIC"> F  </i>
   <v name="POMASS">     16.00000000      1.00000000</v>
   <i type="logical" name="LCORR"> T  </i>
  </separator>
  <i type="logical" name="LREAL_COMPAT"> F  </i>
  <i type="logical" name="GGA_COMPAT"> T  </i>
  <i type="logical" name="LBERRY"> F  </i>
  <i type="int" name="ICORELEVEL">     0</i>
  <i type="logical" name="LDAU"> F  </i>
  <i type="int" name="I_CONSTRAINED_M">     0</i>
 </parameters>
 <atominfo>
  <atoms>       3</atoms>
  <types>       2</types>
  <array name="atoms" >
   <dimension dim="1">ion</dimension>
   <field type="string">element</field>
   <field type="int">atomtype</field>
   <set>
    <rc><c>O </c><c>   1</c></rc>
    <rc><c>H </c><c>   2</c></rc>
    <rc><c>H </c><c>   2</c></rc>
   </set>
  </array>
  <array name="atomtypes" >
   <dimension dim="1">type</dimension>
   <field type="int">atomspertype</field>
   <field type="string">element</field>
   <field>mass</field>
   <field>valence</field>
   <field type="string">pseudopotential</field>
   <set>
    <rc><c>   1</c><c>O </c><c>     16.00000000</c><c>      6.00000000</c><c> PAW_PBE O 08Apr2002                    </c></rc>
    <rc><c>   2</c><c>H </c><c>      1.00000000</c><c>      1.00000000</c><c> PAW_PBE H 15Jun2001                    </c></rc>
   </set>
  </array>
 </atominfo>
 <structure name="initialpos" >
  <crystal>
   <varray name="basis" >
    <v>       8.00000000       0.00000000       0.00000000 </v>
    <v>       0.00000000       8.00000000       0.00000000 </v>
    <v>       0.00000000       0.00000000       8.00000000 </v>
   </varray>
   <i name="volume">    512.00000000</i>
   <varray name="rec_basis" >
    <v>       0.12500000       0.00000000       0.00000000 </v>
    <v>       0.00000000       0.12500000       0.00000000 </v>
    <v>       0.00000000       0.00000000       0.12500000 </v>
   </varray>
  </crystal>
  <varray name="positions" >
   <v>       0.50000000       0.50000000       0.50000000 </v>
   <v>       0.59459875       0.57322000       0.50000000 </v>
   <v>       0.40540125       0.57322000       0.50000000 </v>
  </varray>
  <varray name="velocities" >
   <v>       0.00000000      -0.00000002      -0.00000002 </v>
   <v>      -0.00000011      -0.00000008       0.00000028 </v>
   <v>       0.00000017       0.00000038       0.00000005 </v>
  </varray>
 </structure>
 <calculation>
  <scstep>
   <time name="diag">    0.08    0.09</time>
   <time name="diis">    0.17    0.17</time>
   <time name="orth">    0.00    0.00</time>
   <time name="total">    0.59    0.61</time>
   <energy>
    <i name="alphaZ">      0.43793512</i>
    <i name="ewald">     27.43683310</i>
    <i name="hartreedc">   -387.13138078</i>
    <i name="XCdc">     32.29197268</i>
    <i name="pawpsdc">    247.56105404</i>
    <i name="pawaedc">   -249.42875511</i>
    <i name="eentropy">     -0.07799862</i>
    <i name="bandstr">     -7.59537254</i>
    <i name="atom">    457.32929435</i>
    <i name="e_fr_energy">    120.82358224</i>
    <i name="e_wo_entrp">    120.90158086</i>
    <i name="e_0_energy">    120.86258155</i>
   </energy>
  </scstep>
  <scstep>
   <time name="diag">    0.10    0.10</time>
   <time name="diis">    0.18    0.18</time>
   <time name="orth">    0.00    0.00</time>
   <time name="total">    0.29    0.30</time>
   <energy>
    <i name="e_fr_energy">     94.55224267</i>
    <i name="e_wo_entrp">     94.55758533</i>
    <i name="e_0_energy">     94.55491400</i>
   </energy>
  </scstep>
  <scstep>
   <time name="diag">    0.10    0.10</time>
   <time name="diis">    0.19    0.19</time>
   <time name="orth">    0.00    0.00</time>
   <time name="total">    0.29    0.30</time>
   <energy>
    <i name="e_fr_energy">     63.03577177</i>
    <i name="e_wo_entrp">     63.03577177</i>
    <i name="e_0_energy">     63.03577177</i>
   </energy>
  </scstep>
  <scstep>
   <time name="diag">    0.09    0.09</time>
   <time name="diis">    0.19    0.19</time>
   <time name="orth">    0.00    0.00</time>
   <time name="total">    0.29    0.36</time>
   <energy>
    <i name="e_fr_energy">     27.67432232</i>
    <i name="e_wo_entrp">     27.67432233</i>
    <i name="e_0_energy">     27.67432232</i>
   </energy>
  </scstep>
  <scstep>
   <time name="diag">    0.10    0.10</time>
   <time name="diis">    0.18    0.18</time>
   <time name="orth">    0.00    0.00</time>
   <time name="total">    0.28    0.29</time>
   <energy>
    <i name="e_fr_energy">      2.21863312</i>
    <i name="e_wo_entrp">      2.21863312</i>
    <i name="e_0_energy">      2.21863312</i>
   </energy>
  </scstep>
  <scstep>
   <time name="diag">    0.10    0.10</time>
   <time name="diis">    0.19    0.19</time>
   <time name="orth">    0.00    0.00</time>
   <time name="total">    0.29    0.36</time>
   <energy>
    <i name="e_fr_energy">    -11.95342892</i>
    <i name="e_wo_entrp">    -11.95342892</i>
    <i name="e_0_energy">    -11.95342892</i>
   </energy>
  </scstep>
  <scstep>
   <time name="diag">    0.10    0.10</time>
   <time name="diis">    0.19    0.19</time>
   <time name="orth">    0.00    0.00</time>
   <time name="total">    0.52    0.52</time>
   <energy>
    <i name="e_fr_energy">    -15.61521218</i>
    <i name="e_wo_entrp">    -15.61521218</i>
    <i name="e_0_energy">    -15.61521218</i>
   </energy>
  </scstep>
  <scstep>
   <time name="diag">    0.12    0.12</time>
   <time name="diis">    0.20    0.20</time>
   <time name="orth">    0.00    0.00</time>
   <time name="total">    0.34    0.41</time>
   <energy>
    <i name="e_fr_energy">    -16.18913809</i>
    <i name="e_wo_entrp">    -16.18913809</i>
    <i name="e_0_energy">    -16.18913809</i>
   </energy>
  </scstep>
  <scstep>
   <time name="diag">    0.09    0.09</time>
   <time name="diis">    0.32    0.32</time>
   <time name="orth">    0.00    0.00</time>
   <time name="total">    0.42    0.42</time>
   <energy>
    <i name="e_fr_energy">    -16.33135855</i>
    <i name="e_wo_entrp">    -16.33135855</i>
    <i name="e_0_energy">    -16.33135855</i>
   </energy>
  </scstep>
  <scstep>
   <time name="diag">    0.10    0.10</time>
   <time name="diis">    0.34    0.34</time>
   <time name="orth">    0.00    0.00</time>
   <time name="total">    0.44    0.44</time>
   <energy>
    <i name="e_fr_energy">    -16.34358273</i>
    <i name="e_wo_entrp">    -16.34358273</i>
    <i name="e_0_energy">    -16.34358273</i>
   </energy>
  </scstep>
  <scstep>
   <time name="diag">    0.09    0.09</time>
   <time name="diis">    0.32    0.32</time>
   <time name="orth">    0.00    0.00</time>
   <time name="total">    0.42    0.49</time>
   <energy>
    <i name="e_fr_energy">    -16.34378076</i>
    <i name="e_wo_entrp">    -16.34378076</i>
    <i name="e_0_energy">    -16.34378076</i>
   </energy>
  </scstep>
  <scstep>
   <time name="diag">    0.10    0.10</time>
   <time name="diis">    0.29    0.29</time>
   <time name="orth">    0.00    0.00</time>
   <time name="total">    0.52    0.53</time>
   <energy>
    <i name="e_fr_energy">    -16.34379445</i>
    <i name="e_wo_entrp">    -16.34379445</i>
    <i name="e_0_energy">    -16.34379445</i>
   </energy>
  </scstep>
  <scstep>
   <time name="diag">    0.10    0.10</time>
   <time name="diis">    0.31    0.31</time>
   <time name="orth">    0.00    0.00</time>
   <time name="total">    0.91    0.97</time>
   <energy>
    <i name="e_fr_energy">    -14.63530725</i>
    <i name="e_wo_entrp">    -14.63530725</i>
    <i name="e_0_energy">    -14.63530725</i>
   </energy>
  </scstep>
  <scstep>
   <time name="diag">    0.10    0.10</time>
   <time name="diis">    0.31    0.31</time>
   <time name="orth">    0.00    0.00</time>
   <time name="total">    0.91    0.91</time>
   <energy>
    <i name="e_fr_energy">    -14.33581297</i>
    <i name="e_wo_entrp">    -14.33581297</i>
    <i name="e_0_energy">    -14.33581297</i>
   </energy>
  </scstep>
  <scstep>
   <time name="diag">    0.10    0.10</time>
   <time name="diis">    0.31    0.31</time>
   <time name="orth">    0.00    0.00</time>
   <time name="total">    0.90    0.91</time>
   <energy>
    <i name="e_fr_energy">    -14.19159891</i>
    <i name="e_wo_entrp">    -14.19159891</i>
    <i name="e_0_energy">    -14.19159891</i>
   </energy>
  </scstep>
  <scstep>
   <time name="diag">    0.10    0.10</time>
   <time name="diis">    0.31    0.31</time>
   <time name="orth">    0.00    0.00</time>
   <time name="total">    0.90    0.91</time>
   <energy>
    <i name="e_fr_energy">    -14.17203211</i>
    <i name="e_wo_entrp">    -14.17203211</i>
    <i name="e_0_energy">    -14.17203211</i>
   </energy>
  </scstep>
  <scstep>
   <time name="diag">    0.10    0.10</time>
   <time name="diis">    0.32    0.32</time>
   <time name="orth">    0.00    0.00</time>
   <time name="total">    0.91    0.92</time>
   <energy>
    <i name="e_fr_energy">    -14.17179967</i>
    <i name="e_wo_entrp">    -14.17179967</i>
    <i name="e_0_energy">    -14.17179967</i>
   </energy>
  </scstep>
  <scstep>
   <time name="diag">    0.10    0.10</time>
   <time name="diis">    0.32    0.32</time>
   <time name="orth">    0.00    0.00</time>
   <time name="total">    0.91    0.92</time>
   <energy>
    <i name="e_fr_energy">    -14.19028581</i>
    <i name="e_wo_entrp">    -14.19028581</i>
    <i name="e_0_energy">    -14.19028581</i>
   </energy>
  </scstep>
  <scstep>
   <time name="diag">    0.09    0.09</time>
   <time name="diis">    0.32    0.32</time>
   <time name="orth">    0.00    0.00</time>
   <time name="total">    0.90    0.91</time>
   <energy>
    <i name="e_fr_energy">    -14.19687338</i>
    <i name="e_wo_entrp">    -14.19687338</i>
    <i name="e_0_energy">    -14.19687338</i>
   </energy>
  </scstep>
  <scstep>
   <time name="diag">    0.09    0.09</time>
   <time name="diis">    0.31    0.31</time>
   <time name="orth">    0.00    0.00</time>
   <time name="total">    0.90    0.91</time>
   <energy>
    <i name="e_fr_energy">    -14.20629094</i>
    <i name="e_wo_entrp">    -14.20629094</i>
    <i name="e_0_energy">    -14.20629094</i>
   </energy>
  </scstep>
  <scstep>
   <time name="diag">    0.09    0.09</time>
   <time name="diis">    0.29    0.29</time>
   <time name="orth">    0.00    0.00</time>
   <time name="total">    0.88    0.89</time>
   <energy>
    <i name="e_fr_energy">    -14.20886438</i>
    <i name="e_wo_entrp">    -14.20886438</i>
    <i name="e_0_energy">    -14.20886438</i>
   </energy>
  </scstep>
  <scstep>
   <time name="diag">    0.10    0.10</time>
   <time name="diis">    0.29    0.29</time>
   <time name="orth">    0.00    0.00</time>
   <time name="total">    0.88    0.89</time>
   <energy>
    <i name="e_fr_energy">    -14.21044768</i>
    <i name="e_wo_entrp">    -14.21044768</i>
    <i name="e_0_energy">    -14.21044768</i>
   </energy>
  </scstep>
  <scstep>
   <time name="diag">    0.10    0.10</time>
   <time name="diis">    0.29    0.29</time>
   <time name="orth">    0.00    0.00</time>
   <time name="total">    0.87    0.88</time>
   <energy>
    <i name="e_fr_energy">    -14.21099217</i>
    <i name="e_wo_entrp">    -14.21099217</i>
    <i name="e_0_energy">    -14.21099217</i>
   </energy>
  </scstep>
  <scstep>
   <time name="diag">    0.09    0.10</time>
   <time name="diis">    0.30    0.30</time>
   <time name="orth">    0.00    0.00</time>
   <time name="total">    0.88    0.89</time>
   <energy>
    <i name="e_fr_energy">    -14.21119739</i>
    <i name="e_wo_entrp">    -14.21119739</i>
    <i name="e_0_energy">    -14.21119739</i>
   </energy>
  </scstep>
  <scstep>
   <time name="diag">    0.09    0.09</time>
   <time name="diis">    0.30    0.30</time>
   <time name="orth">    0.00    0.00</time>
   <time name="total">    0.76    0.77</time>
   <energy>
    <i name="alphaZ">      0.43793512</i>
    <i name="ewald">     27.43683310</i>
    <i name="hartreedc">   -422.45976902</i>
    <i name="XCdc">     34.19578014</i>
    <i name="pawpsdc">    329.67545859</i>
    <i name="pawaedc">   -331.84552054</i>
    <i name="eentropy">      0.00000000</i>
    <i name="bandstr">   -108.98127008</i>
    <i name="atom">    457.32929435</i>
    <i name="e_fr_energy">    -14.21125834</i>
    <i name="e_wo_entrp">    -14.21125834</i>
    <i name="e_0_energy">    -14.21125834</i>
   </energy>
  </scstep>
  <structure>
   <crystal>
    <varray name="basis" >
     <v>       8.00000000       0.00000000       0.00000000 </v>
     <v>       0.00000000       8.00000000       0.00000000 </v>
     <v>       0.00000000       0.00000000       8.00000000 </v>
    </varray>
    <i name="volume">    512.00000000</i>
    <varray name="rec_basis" >
     <v>       0.12500000       0.00000000       0.00000000 </v>
     <v>       0.00000000       0.12500000       0.00000000 </v>
     <v>       0.00000000       0.00000000       0.12500000 </v>
    </varray>
   </crystal>
   <varray name="positions" >
    <v>       0.50000000       0.50000000       0.50000000 </v>
    <v>       0.59459875       0.57322000       0.50000000 </v>
    <v>       0.40540125       0.57322000       0.50000000 </v>
   </varray>
  </structure>
  <varray name="forces" >
   <v>      -0.00000028      -0.88762983      -0.00000565 </v>
   <v>       0.64171599       0.44381511       0.00000212 </v>
   <v>      -0.64171571       0.44381472       0.00000353 </v>
  </varray>
  <varray name="stress" >
   <v>       2.77351266       0.00000069       0.00002496 </v>
   <v>      -0.00000029       1.21408672       0.00006120 </v>
   <v>       0.00002502       0.00004013      -0.29245268 </v>
  </varray>
  <energy>
   <i name="e_fr_energy">    -14.21125834</i>
   <i name="e_wo_entrp">    -14.21125834</i>
   <i name="e_0_energy">      0.00000000</i>
   <i name="kinetic">      0.00005712</i>
   <i name="nosepot">      0.00000000</i>
   <i name="nosekinetic">      0.00000000</i>
   <i name="total">    -14.21120122</i>
  </energy>
 </calculation>
 <calculation>
  <scstep>
   <time name="diag">    0.09    0.09</time>
   <time name="diis">    0.29    0.29</time>
   <time name="orth">    0.00    0.00</time>
   <time name="total">    0.88    0.88</time>
   <energy>
    <i name="alphaZ">      0.43793512</i>
    <i name="ewald">     27.37902379</i>
    <i name="hartreedc">   -422.42395336</i>
    <i name="XCdc">     34.19405530</i>
    <i name="pawpsdc">    329.66383880</i>
    <i name="pawaedc">   -331.83386951</i>
    <i name="eentropy">      0.00000000</i>
    <i name="bandstr">   -108.95804489</i>
    <i name="atom">    457.32929435</i>
    <i name="e_fr_energy">    -14.21172041</i>
    <i name="e_wo_entrp">    -14.21172041</i>
    <i name="e_0_energy">    -14.21172041</i>
   </energy>
  </scstep>
  <scstep>
   <time name="diag">    0.09    0.09</time>
   <time name="diis">    0.30    0.30</time>
   <time name="orth">    0.00    0.00</time>
   <time name="total">    0.89    0.89</time>
   <energy>
    <i name="e_fr_energy">    -14.21172518</i>
    <i name="e_wo_entrp">    -14.21172518</i>
    <i name="e_0_energy">    -14.21172518</i>
   </energy>
  </scstep>
  <scstep>
   <time name="diag">    0.10    0.10</time>
   <time name="diis">    0.30    0.30</time>
   <time name="orth">    0.00    0.00</time>
   <time name="total">    0.89    0.95</time>
   <energy>
    <i name="e_fr_energy">    -14.21172739</i>
    <i name="e_wo_entrp">    -14.21172739</i>
    <i name="e_0_energy">    -14.21172739</i>
   </energy>
  </scstep>
  <scstep>
   <time name="diag">    0.08    0.08</time>
   <time name="diis">    0.29    0.29</time>
   <time name="orth">    0.00    0.00</time>
   <time name="total">    0.75    0.75</time>
   <energy>
    <i name="alphaZ">      0.43793512</i>
    <i name="ewald">     27.37902379</i>
    <i name="hartreedc">   -422.39390468</i>
    <i name="XCdc">     34.19244979</i>
    <i name="pawpsdc">    329.56668960</i>
    <i name="pawaedc">   -331.73596792</i>
    <i name="eentropy">      0.00000000</i>
    <i name="bandstr">   -108.98725174</i>
    <i name="atom">    457.32929435</i>
    <i name="e_fr_energy">    -14.21173170</i>
    <i name="e_wo_entrp">    -14.21173170</i>
    <i name="e_0_energy">    -14.21173170</i>
   </energy>
  </scstep>
  <structure>
   <crystal>
    <varray name="basis" >
     <v>       8.00000000       0.00000000       0.00000000 </v>
     <v>       0.00000000       8.00000000       0.00000000 </v>
     <v>       0.00000000       0.00000000       8.00000000 </v>
    </varray>
    <i name="volume">    512.00000000</i>
    <varray name="rec_basis" >
     <v>       0.12500000       0.00000000       0.00000000 </v>
     <v>       0.00000000       0.12500000       0.00000000 </v>
     <v>       0.00000000       0.00000000       0.12500000 </v>
    </varray>
   </crystal>
   <varray name="positions" >
    <v>       0.50000000       0.49999748       0.49999998 </v>
    <v>       0.59462762       0.57323996       0.50000028 </v>
    <v>       0.40537244       0.57324043       0.50000005 </v>
   </varray>
  </structure>
  <varray name="forces" >
   <v>      -0.00008011      -0.86529602      -0.00004030 </v>
   <v>       0.62640504       0.43268387       0.00001776 </v>
   <v>      -0.62632494       0.43261215       0.00002254 </v>
  </varray>
  <varray name="stress" >
   <v>       2.75272853       0.00011888       0.00000898 </v>
   <v>       0.00012055       1.22580268       0.00003739 </v>
   <v>       0.00000864       0.00001625      -0.24480248 </v>
  </varray>
  <energy>
   <i name="e_fr_energy">    -14.21173170</i>
   <i name="e_wo_entrp">    -14.21173170</i>
   <i name="e_0_energy">      0.00000000</i>
   <i name="kinetic">      0.00050622</i>
   <i name="nosepot">      0.00000000</i>
   <i name="nosekinetic">      0.00000000</i>
   <i name="total">    -14.21122548</i>
  </energy>
 </calculation>
 <calculation>
  <scstep>
   <time name="diag">    0.08    0.08</time>
   <time name="diis">    0.28    0.28</time>
   <time name="orth">    0.00    0.00</time>
   <time name="total">    0.84    0.85</time>
   <energy>
    <i name="alphaZ">      0.43793512</i>
    <i name="ewald">     27.26489616</i>
    <i name="hartreedc">   -422.28790593</i>
    <i name="XCdc">     34.18716565</i>
    <i name="pawpsdc">    329.44082455</i>
    <i name="pawaedc">   -331.60932932</i>
    <i name="eentropy">      0.00000000</i>
    <i name="bandstr">   -108.97540755</i>
    <i name="atom">    457.32929435</i>
    <i name="e_fr_energy">    -14.21252697</i>
    <i name="e_wo_entrp">    -14.21252697</i>
    <i name="e_0_energy">    -14.21252697</i>
   </energy>
  </scstep>
  <scstep>
   <time name="diag">    0.08    0.08</time>
   <time name="diis">    0.28    0.28</time>
   <time name="orth">    0.00    0.00</time>
   <time name="total">    0.85    0.86</time>
   <energy>
    <i name="e_fr_energy">    -14.21258532</i>
    <i name="e_wo_entrp">    -14.21258532</i>
    <i name="e_0_energy">    -14.21258532</i>
   </energy>
  </scstep>
  <scstep>
   <time name="diag">    0.08    0.08</time>
   <time name="diis">    0.28    0.28</time>
   <time name="orth">    0.00    0.00</time>
   <time name="total">    0.85    0.86</time>
   <energy>
    <i name="e_fr_energy">    -14.21259400</i>
    <i name="e_wo_entrp">    -14.21259400</i>
    <i name="e_0_energy">    -14.21259400</i>
   </energy>
  </scstep>
  <scstep>
   <time name="diag">    0.08    0.08</time>
   <time name="diis">    0.29    0.29</time>
   <time name="orth">    0.00    0.00</time>
   <time name="total">    0.73    0.74</time>
   <energy>
    <i name="alphaZ">      0.43793512</i>
    <i name="ewald">     27.26489616</i>
    <i name="hartreedc">   -422.30958627</i>
    <i name="XCdc">     34.18819312</i>
    <i name="pawpsdc">    329.42572021</i>
    <i name="pawaedc">   -331.59445960</i>
    <i name="eentropy">      0.00000000</i>
    <i name="bandstr">   -108.95459194</i>
    <i name="atom">    457.32929435</i>
    <i name="e_fr_energy">    -14.21259885</i>
    <i name="e_wo_entrp">    -14.21259885</i>
    <i name="e_0_energy">    -14.21259885</i>
   </energy>
  </scstep>
  <structure>
   <crystal>
    <varray name="basis" >
     <v>       8.00000000       0.00000000       0.00000000 </v>
     <v>       0.00000000       8.00000000       0.00000000 </v>
     <v>       0.00000000       0.00000000       8.00000000 </v>
    </varray>
    <i name="volume">    512.00000000</i>
    <varray name="rec_basis" >
     <v>       0.12500000       0.00000000       0.00000000 </v>
     <v>       0.00000000       0.12500000       0.00000000 </v>
     <v>       0.00000000       0.00000000       0.12500000 </v>
    </varray>
   </crystal>
   <varray name="positions" >
    <v>       0.49999999       0.49999251       0.49999996 </v>
    <v>       0.59468478       0.57327946       0.50000057 </v>
    <v>       0.40531535       0.57328039       0.50000011 </v>
   </varray>
  </structure>
  <varray name="forces" >
   <v>      -0.00016121      -0.83128146      -0.00000390 </v>
   <v>       0.60006456       0.41570130       0.00000264 </v>
   <v>      -0.59990335       0.41558016       0.00000125 </v>
  </varray>
  <varray name="stress" >
   <v>       2.62729348       0.00028037       0.00000704 </v>
   <v>       0.00028078       1.15824266       0.00001907 </v>
   <v>       0.00000697      -0.00000132      -0.24853316 </v>
  </varray>
  <energy>
   <i name="e_fr_energy">    -14.21259885</i>
   <i name="e_wo_entrp">    -14.21259885</i>
   <i name="e_0_energy">      0.00000000</i>
   <i name="kinetic">      0.00136563</i>
   <i name="nosepot">      0.00000000</i>
   <i name="nosekinetic">      0.00000000</i>
   <i name="total">    -14.21123323</i>
  </energy>
 </calculation>
 <calculation>
  <scstep>
   <time name="diag">    0.08    0.08</time>
   <time name="diis">    0.23    0.23</time>
   <time name="orth">    0.00    0.00</time>
   <time name="total">    0.77    0.77</time>
   <energy>
    <i name="alphaZ">      0.43793512</i>
    <i name="ewald">     27.09696945</i>
    <i name="hartreedc">   -422.18363395</i>
    <i name="XCdc">     34.18173273</i>
    <i name="pawpsdc">    329.15100393</i>
    <i name="pawaedc">   -331.31852448</i>
    <i name="eentropy">      0.00000000</i>
    <i name="bandstr">   -108.90857095</i>
    <i name="atom">    457.32929435</i>
    <i name="e_fr_energy">    -14.21379380</i>
    <i name="e_wo_entrp">    -14.21379380</i>
    <i name="e_0_energy">    -14.21379380</i>
   </energy>
  </scstep>
  <scstep>
   <time name="diag">    0.08    0.08</time>
   <time name="diis">    0.20    0.20</time>
   <time name="orth">    0.00    0.00</time>
   <time name="total">    0.75    0.76</time>
   <energy>
    <i name="e_fr_energy">    -14.21380283</i>
    <i name="e_wo_entrp">    -14.21380283</i>
    <i name="e_0_energy">    -14.21380283</i>
   </energy>
  </scstep>
  <scstep>
   <time name="diag">    0.08    0.08</time>
   <time name="diis">    0.20    0.20</time>
   <time name="orth">    0.00    0.00</time>
   <time name="total">    0.76    0.77</time>
   <energy>
    <i name="e_fr_energy">    -14.21380509</i>
    <i name="e_wo_entrp">    -14.21380509</i>
    <i name="e_0_energy">    -14.21380509</i>
   </energy>
  </scstep>
  <scstep>
   <time name="diag">    0.08    0.08</time>
   <time name="diis">    0.19    0.19</time>
   <time name="orth">    0.00    0.00</time>
   <time name="total">    0.68    0.69</time>
   <energy>
    <i name="alphaZ">      0.43793512</i>
    <i name="ewald">     27.09696945</i>
    <i name="hartreedc">   -422.17185014</i>
    <i name="XCdc">     34.18107573</i>
    <i name="pawpsdc">    329.15397268</i>
    <i name="pawaedc">   -331.32132601</i>
    <i name="eentropy">      0.00000000</i>
    <i name="bandstr">   -108.91987648</i>
    <i name="atom">    457.32929435</i>
    <i name="e_fr_energy">    -14.21380531</i>
    <i name="e_wo_entrp">    -14.21380531</i>
    <i name="e_0_energy">    -14.21380531</i>
   </energy>
  </scstep>
  <structure>
   <crystal>
    <varray name="basis" >
     <v>       8.00000000       0.00000000       0.00000000 </v>
     <v>       0.00000000       8.00000000       0.00000000 </v>
     <v>       0.00000000       0.00000000       8.00000000 </v>
    </varray>
    <i name="volume">    512.00000000</i>
    <varray name="rec_basis" >
     <v>       0.12500000       0.00000000       0.00000000 </v>
     <v>       0.00000000       0.12500000       0.00000000 </v>
     <v>       0.00000000       0.00000000       0.12500000 </v>
    </varray>
   </crystal>
   <varray name="positions" >
    <v>       0.49999999       0.49998520       0.49999994 </v>
    <v>       0.59476904       0.57333774       0.50000085 </v>
    <v>       0.40523117       0.57333912       0.50000016 </v>
   </varray>
  </structure>
  <varray name="forces" >
   <v>      -0.00022573      -0.78103886      -0.00005500 </v>
   <v>       0.56244544       0.39060110       0.00003068 </v>
   <v>      -0.56221971       0.39043776       0.00002432 </v>
  </varray>
  <varray name="stress" >
   <v>       2.43453531       0.00039170       0.00000626 </v>
   <v>       0.00038994       1.05123342       0.00002292 </v>
   <v>       0.00000583       0.00000333      -0.26297894 </v>
  </varray>
  <energy>
   <i name="e_fr_energy">    -14.21380531</i>
   <i name="e_wo_entrp">    -14.21380531</i>
   <i name="e_0_energy">      0.00000000</i>
   <i name="kinetic">      0.00256721</i>
   <i name="nosepot">      0.00000000</i>
   <i name="nosekinetic">      0.00000000</i>
   <i name="total">    -14.21123810</i>
  </energy>
 </calculation>
 <calculation>
  <scstep>
   <time name="diag">    0.07    0.07</time>
   <time name="diis">    0.18    0.18</time>
   <time name="orth">    0.00    0.00</time>
   <time name="total">    0.67    0.67</time>
   <energy>
    <i name="alphaZ">      0.43793512</i>
    <i name="ewald">     26.87886666</i>
    <i name="hartreedc">   -421.99415835</i>
    <i name="XCdc">     34.17186310</i>
    <i name="pawpsdc">    328.80029427</i>
    <i name="pawaedc">   -330.96593453</i>
    <i name="eentropy">      0.00000000</i>
    <i name="bandstr">   -108.87341572</i>
    <i name="atom">    457.32929435</i>
    <i name="e_fr_energy">    -14.21525511</i>
    <i name="e_wo_entrp">    -14.21525511</i>
    <i name="e_0_energy">    -14.21525511</i>
   </energy>
  </scstep>
  <scstep>
   <time name="diag">    0.11    0.11</time>
   <time name="diis">    0.22    0.22</time>
   <time name="orth">    0.00    0.00</time>
   <time name="total">    0.86    0.86</time>
   <energy>
    <i name="e_fr_energy">    -14.21525530</i>
    <i name="e_wo_entrp">    -14.21525530</i>
    <i name="e_0_energy">    -14.21525530</i>
   </energy>
  </scstep>
  <scstep>
   <time name="diag">    0.07    0.07</time>
   <time name="diis">    0.18    0.18</time>
   <time name="orth">    0.00    0.00</time>
   <time name="total">    1.89    1.89</time>
   <energy>
    <i name="e_fr_energy">    -14.21525563</i>
    <i name="e_wo_entrp">    -14.21525563</i>
    <i name="e_0_energy">    -14.21525563</i>
   </energy>
  </scstep>
  <scstep>
   <time name="diag">    0.07    0.07</time>
   <time name="diis">    0.17    0.17</time>
   <time name="orth">    0.00    0.00</time>
   <time name="total">    0.56    0.57</time>
   <energy>
    <i name="alphaZ">      0.43793512</i>
    <i name="ewald">     26.87886666</i>
    <i name="hartreedc">   -422.00898964</i>
    <i name="XCdc">     34.17275642</i>
    <i name="pawpsdc">    328.83315084</i>
    <i name="pawaedc">   -330.99911929</i>
    <i name="eentropy">      0.00000000</i>
    <i name="bandstr">   -108.85915042</i>
    <i name="atom">    457.32929435</i>
    <i name="e_fr_energy">    -14.21525597</i>
    <i name="e_wo_entrp">    -14.21525597</i>
    <i name="e_0_energy">    -14.21525597</i>
   </energy>
  </scstep>
  <structure>
   <crystal>
    <varray name="basis" >
     <v>       8.00000000       0.00000000       0.00000000 </v>
     <v>       0.00000000       8.00000000       0.00000000 </v>
     <v>       0.00000000       0.00000000       8.00000000 </v>
    </varray>
    <i name="volume">    512.00000000</i>
    <varray name="rec_basis" >
     <v>       0.12500000       0.00000000       0.00000000 </v>
     <v>       0.00000000       0.12500000       0.00000000 </v>
     <v>       0.00000000       0.00000000       0.12500000 </v>
    </varray>
   </crystal>
   <varray name="positions" >
    <v>       0.49999998       0.49997568       0.49999992 </v>
    <v>       0.59487870       0.57341365       0.50000113 </v>
    <v>       0.40512160       0.57341549       0.50000022 </v>
   </varray>
  </structure>
  <varray name="forces" >
   <v>      -0.00030277      -0.71181067      -0.00000265 </v>
   <v>       0.51184883       0.35601573       0.00000579 </v>
   <v>      -0.51154606       0.35579494      -0.00000314 </v>
  </varray>
  <varray name="stress" >
   <v>       2.21490666       0.00053740      -0.00000505 </v>
   <v>       0.00053710       0.94589813       0.00003411 </v>
   <v>      -0.00000465       0.00001337      -0.24332641 </v>
  </varray>
  <energy>
   <i name="e_fr_energy">    -14.21525597</i>
   <i name="e_wo_entrp">    -14.21525597</i>
   <i name="e_0_energy">      0.00000000</i>
   <i name="kinetic">      0.00401300</i>
   <i name="nosepot">      0.00000000</i>
   <i name="nosekinetic">      0.00000000</i>
   <i name="total">    -14.21124297</i>
  </energy>
 </calculation>
 <calculation>
  <scstep>
   <time name="diag">    0.07    0.07</time>
   <time name="diis">    0.18    0.18</time>
   <time name="orth">    0.00    0.00</time>
   <time name="total">    0.68    0.68</time>
   <energy>
    <i name="alphaZ">      0.43793512</i>
    <i name="ewald">     26.61544772</i>
    <i name="hartreedc">   -421.82588491</i>
    <i name="XCdc">     34.16352883</i>
    <i name="pawpsdc">    328.48066204</i>
    <i name="pawaedc">   -330.64537474</i>
    <i name="eentropy">      0.00000000</i>
    <i name="bandstr">   -108.77244378</i>
    <i name="atom">    457.32929435</i>
    <i name="e_fr_energy">    -14.21683538</i>
    <i name="e_wo_entrp">    -14.21683538</i>
    <i name="e_0_energy">    -14.21683538</i>
   </energy>
  </scstep>
  <scstep>
   <time name="diag">    0.07    0.07</time>
   <time name="diis">    0.18    0.18</time>
   <time name="orth">    0.00    0.00</time>
   <time name="total">    0.69    0.70</time>
   <energy>
    <i name="e_fr_energy">    -14.21683399</i>
    <i name="e_wo_entrp">    -14.21683399</i>
    <i name="e_0_energy">    -14.21683399</i>
   </energy>
  </scstep>
  <scstep>
   <time name="diag">    0.07    0.07</time>
   <time name="diis">    0.17    0.17</time>
   <time name="orth">    0.00    0.00</time>
   <time name="total">    0.68    0.69</time>
   <energy>
    <i name="e_fr_energy">    -14.21683459</i>
    <i name="e_wo_entrp">    -14.21683459</i>
    <i name="e_0_energy">    -14.21683459</i>
   </energy>
  </scstep>
  <scstep>
   <time name="diag">    0.07    0.07</time>
   <time name="diis">    0.17    0.17</time>
   <time name="orth">    0.00    0.00</time>
   <time name="total">    0.58    0.59</time>
   <energy>
    <i name="alphaZ">      0.43793512</i>
    <i name="ewald">     26.61544772</i>
    <i name="hartreedc">   -421.80158936</i>
    <i name="XCdc">     34.16211080</i>
    <i name="pawpsdc">    328.44703654</i>
    <i name="pawaedc">   -330.61122554</i>
    <i name="eentropy">      0.00000000</i>
    <i name="bandstr">   -108.79584437</i>
    <i name="atom">    457.32929435</i>
    <i name="e_fr_energy">    -14.21683475</i>
    <i name="e_wo_entrp">    -14.21683475</i>
    <i name="e_0_energy">    -14.21683475</i>
   </energy>
  </scstep>
  <structure>
   <crystal>
    <varray name="basis" >
     <v>       8.00000000       0.00000000       0.00000000 </v>
     <v>       0.00000000       8.00000000       0.00000000 </v>
     <v>       0.00000000       0.00000000       8.00000000 </v>
    </varray>
    <i name="volume">    512.00000000</i>
    <varray name="rec_basis" >
     <v>       0.12500000       0.00000000       0.00000000 </v>
     <v>       0.00000000       0.12500000       0.00000000 </v>
     <v>       0.00000000       0.00000000       0.12500000 </v>
    </varray>
   </crystal>
   <varray name="positions" >
    <v>       0.49999997       0.49996415       0.49999989 </v>
    <v>       0.59501148       0.57350564       0.50000142 </v>
    <v>       0.40498893       0.57350792       0.50000028 </v>
   </varray>
  </structure>
  <varray name="forces" >
   <v>      -0.00035872      -0.63019288      -0.00002373 </v>
   <v>       0.45148449       0.31523309       0.00001371 </v>
   <v>      -0.45112577       0.31495979       0.00001002 </v>
  </varray>
  <varray name="stress" >
   <v>       1.92434786       0.00064179       0.00002051 </v>
   <v>       0.00064223       0.79132311       0.00003932 </v>
   <v>       0.00002144       0.00001775      -0.24795992 </v>
  </varray>
  <energy>
   <i name="e_fr_energy">    -14.21683475</i>
   <i name="e_wo_entrp">    -14.21683475</i>
   <i name="e_0_energy">      0.00000000</i>
   <i name="kinetic">      0.00558433</i>
   <i name="nosepot">      0.00000000</i>
   <i name="nosekinetic">      0.00000000</i>
   <i name="total">    -14.21125042</i>
  </energy>
 </calculation>
 <calculation>
  <scstep>
   <time name="diag">    0.07    0.07</time>
   <time name="diis">    0.20    0.20</time>
   <time name="orth">    0.00    0.00</time>
   <time name="total">    0.69    0.69</time>
   <energy>
    <i name="alphaZ">      0.43793512</i>
    <i name="ewald">     26.31243495</i>
    <i name="hartreedc">   -421.54522020</i>
    <i name="XCdc">     34.14883961</i>
    <i name="pawpsdc">    327.97294905</i>
    <i name="pawaedc">   -330.13456935</i>
    <i name="eentropy">      0.00000000</i>
    <i name="bandstr">   -108.74008357</i>
    <i name="atom">    457.32929435</i>
    <i name="e_fr_energy">    -14.21842003</i>
    <i name="e_wo_entrp">    -14.21842003</i>
    <i name="e_0_energy">    -14.21842003</i>
   </energy>
  </scstep>
  <scstep>
   <time name="diag">    0.07    0.07</time>
   <time name="diis">    0.17    0.17</time>
   <time name="orth">    0.00    0.00</time>
   <time name="total">    0.70    0.70</time>
   <energy>
    <i name="e_fr_energy">    -14.21842016</i>
    <i name="e_wo_entrp">    -14.21842016</i>
    <i name="e_0_energy">    -14.21842016</i>
   </energy>
  </scstep>
  <scstep>
   <time name="diag">    0.07    0.07</time>
   <time name="diis">    0.18    0.18</time>
   <time name="orth">    0.00    0.00</time>
   <time name="total">    0.70    0.71</time>
   <energy>
    <i name="e_fr_energy">    -14.21842020</i>
    <i name="e_wo_entrp">    -14.21842020</i>
    <i name="e_0_energy">    -14.21842020</i>
   </energy>
  </scstep>
  <scstep>
   <time name="diag">    0.07    0.07</time>
   <time name="diis">    0.16    0.16</time>
   <time name="orth">    0.00    0.00</time>
   <time name="total">    0.55    0.56</time>
   <energy>
    <i name="alphaZ">      0.43793512</i>
    <i name="ewald">     26.31243495</i>
    <i name="hartreedc">   -421.57052795</i>
    <i name="XCdc">     34.15028276</i>
    <i name="pawpsdc">    328.00132368</i>
    <i name="pawaedc">   -330.16342319</i>
    <i name="eentropy">      0.00000000</i>
    <i name="bandstr">   -108.71574001</i>
    <i name="atom">    457.32929435</i>
    <i name="e_fr_energy">    -14.21842030</i>
    <i name="e_wo_entrp">    -14.21842030</i>
    <i name="e_0_energy">    -14.21842030</i>
   </energy>
  </scstep>
  <structure>
   <crystal>
    <varray name="basis" >
     <v>       8.00000000       0.00000000       0.00000000 </v>
     <v>       0.00000000       8.00000000       0.00000000 </v>
     <v>       0.00000000       0.00000000       8.00000000 </v>
    </varray>
    <i name="volume">    512.00000000</i>
    <varray name="rec_basis" >
     <v>       0.12500000       0.00000000       0.00000000 </v>
     <v>       0.00000000       0.12500000       0.00000000 </v>
     <v>       0.00000000       0.00000000       0.12500000 </v>
    </varray>
   </crystal>
   <varray name="positions" >
    <v>       0.49999997       0.49995085       0.49999987 </v>
    <v>       0.59516464       0.57361187       0.50000170 </v>
    <v>       0.40483588       0.57361457       0.50000033 </v>
   </varray>
  </structure>
  <varray name="forces" >
   <v>      -0.00041168      -0.54108771       0.00000164 </v>
   <v>       0.38392104       0.27070224      -0.00000056 </v>
   <v>      -0.38350936       0.27038548      -0.00000108 </v>
  </varray>
  <varray name="stress" >
   <v>       1.62770769       0.00074551       0.00002556 </v>
   <v>       0.00074584       0.64721588       0.00002138 </v>
   <v>       0.00002603       0.00000152      -0.23152397 </v>
  </varray>
  <energy>
   <i name="e_fr_energy">    -14.21842030</i>
   <i name="e_wo_entrp">    -14.21842030</i>
   <i name="e_0_energy">      0.00000000</i>
   <i name="kinetic">      0.00716037</i>
   <i name="nosepot">      0.00000000</i>
   <i name="nosekinetic">      0.00000000</i>
   <i name="total">    -14.21125993</i>
  </energy>
 </calculation>
 <calculation>
  <scstep>
   <time name="diag">    0.06    0.06</time>
   <time name="diis">    0.18    0.18</time>
   <time name="orth">    0.00    0.00</time>
   <time name="total">    0.65    0.65</time>
   <energy>
    <i name="alphaZ">      0.43793512</i>
    <i name="ewald">     25.97611738</i>
    <i name="hartreedc">   -421.33543725</i>
    <i name="XCdc">     34.13835773</i>
    <i name="pawpsdc">    327.53279092</i>
    <i name="pawaedc">   -329.69292854</i>
    <i name="eentropy">      0.00000000</i>
    <i name="bandstr">   -108.60601950</i>
    <i name="atom">    457.32929435</i>
    <i name="e_fr_energy">    -14.21988978</i>
    <i name="e_wo_entrp">    -14.21988978</i>
    <i name="e_0_energy">    -14.21988978</i>
   </energy>
  </scstep>
  <scstep>
   <time name="diag">    0.06    0.07</time>
   <time name="diis">    0.17    0.17</time>
   <time name="orth">    0.00    0.00</time>
   <time name="total">    0.67    0.68</time>
   <energy>
    <i name="e_fr_energy">    -14.21988910</i>
    <i name="e_wo_entrp">    -14.21988910</i>
    <i name="e_0_energy">    -14.21988910</i>
   </energy>
  </scstep>
  <scstep>
   <time name="diag">    0.07    0.07</time>
   <time name="diis">    0.17    0.17</time>
   <time name="orth">    0.00    0.00</time>
   <time name="total">    0.68    0.69</time>
   <energy>
    <i name="e_fr_energy">    -14.21988910</i>
    <i name="e_wo_entrp">    -14.21988910</i>
    <i name="e_0_energy">    -14.21988910</i>
   </energy>
  </scstep>
  <scstep>
   <time name="diag">    0.07    0.07</time>
   <time name="diis">    0.17    0.17</time>
   <time name="orth">    0.00    0.00</time>
   <time name="total">    0.55    0.55</time>
   <energy>
    <i name="alphaZ">      0.43793512</i>
    <i name="ewald">     25.97611738</i>
    <i name="hartreedc">   -421.30104786</i>
    <i name="XCdc">     34.13642501</i>
    <i name="pawpsdc">    327.49340817</i>
    <i name="pawaedc">   -329.65310558</i>
    <i name="eentropy">      0.00000000</i>
    <i name="bandstr">   -108.63891567</i>
    <i name="atom">    457.32929435</i>
    <i name="e_fr_energy">    -14.21988908</i>
    <i name="e_wo_entrp">    -14.21988908</i>
    <i name="e_0_energy">    -14.21988908</i>
   </energy>
  </scstep>
  <structure>
   <crystal>
    <varray name="basis" >
     <v>       8.00000000       0.00000000       0.00000000 </v>
     <v>       0.00000000       8.00000000       0.00000000 </v>
     <v>       0.00000000       0.00000000       8.00000000 </v>
    </varray>
    <i name="volume">    512.00000000</i>
    <varray name="rec_basis" >
     <v>       0.12500000       0.00000000       0.00000000 </v>
     <v>       0.00000000       0.12500000       0.00000000 </v>
     <v>       0.00000000       0.00000000       0.12500000 </v>
    </varray>
   </crystal>
   <varray name="positions" >
    <v>       0.49999996       0.49993602       0.49999985 </v>
    <v>       0.59533514       0.57373032       0.50000199 </v>
    <v>       0.40466551       0.57373344       0.50000039 </v>
   </varray>
  </structure>
  <varray name="forces" >
   <v>      -0.00045613      -0.43987456      -0.00002722 </v>
   <v>       0.31006381       0.22011102       0.00001398 </v>
   <v>      -0.30960767       0.21976355       0.00001324 </v>
  </varray>
  <varray name="stress" >
   <v>       1.23778360       0.00082416       0.00000755 </v>
   <v>       0.00082373       0.43302517       0.00003022 </v>
   <v>       0.00000734       0.00001020      -0.26909760 </v>
  </varray>
  <energy>
   <i name="e_fr_energy">    -14.21988908</i>
   <i name="e_wo_entrp">    -14.21988908</i>
   <i name="e_0_energy">      0.00000000</i>
   <i name="kinetic">      0.00862265</i>
   <i name="nosepot">      0.00000000</i>
   <i name="nosekinetic">      0.00000000</i>
   <i name="total">    -14.21126643</i>
  </energy>
 </calculation>
 <calculation>
  <scstep>
   <time name="diag">    0.06    0.06</time>
   <time name="diis">    0.17    0.17</time>
   <time name="orth">    0.00    0.00</time>
   <time name="total">    0.66    0.66</time>
   <energy>
    <i name="alphaZ">      0.43793512</i>
    <i name="ewald">     25.61337127</i>
    <i name="hartreedc">   -420.99304702</i>
    <i name="XCdc">     34.12050570</i>
    <i name="pawpsdc">    326.92269143</i>
    <i name="pawaedc">   -329.07955858</i>
    <i name="eentropy">      0.00000000</i>
    <i name="bandstr">   -108.57232244</i>
    <i name="atom">    457.32929435</i>
    <i name="e_fr_energy">    -14.22113016</i>
    <i name="e_wo_entrp">    -14.22113016</i>
    <i name="e_0_energy">    -14.22113016</i>
   </energy>
  </scstep>
  <scstep>
   <time name="diag">    0.07    0.07</time>
   <time name="diis">    0.18    0.18</time>
   <time name="orth">    0.00    0.00</time>
   <time name="total">    0.69    0.70</time>
   <energy>
    <i name="e_fr_energy">    -14.22112849</i>
    <i name="e_wo_entrp">    -14.22112849</i>
    <i name="e_0_energy">    -14.22112849</i>
   </energy>
  </scstep>
  <scstep>
   <time name="diag">    0.06    0.07</time>
   <time name="diis">    0.16    0.16</time>
   <time name="orth">    0.00    0.00</time>
   <time name="total">    0.66    0.67</time>
   <energy>
    <i name="e_fr_energy">    -14.22112848</i>
    <i name="e_wo_entrp">    -14.22112848</i>
    <i name="e_0_energy">    -14.22112848</i>
   </energy>
  </scstep>
  <scstep>
   <time name="diag">    0.06    0.06</time>
   <time name="diis">    0.16    0.16</time>
   <time name="orth">    0.00    0.00</time>
   <time name="total">    0.54    0.55</time>
   <energy>
    <i name="alphaZ">      0.43793512</i>
    <i name="ewald">     25.61337127</i>
    <i name="hartreedc">   -421.02660581</i>
    <i name="XCdc">     34.12242619</i>
    <i name="pawpsdc">    326.97195466</i>
    <i name="pawaedc">   -329.12926900</i>
    <i name="eentropy">      0.00000000</i>
    <i name="bandstr">   -108.54023523</i>
    <i name="atom">    457.32929435</i>
    <i name="e_fr_energy">    -14.22112845</i>
    <i name="e_wo_entrp">    -14.22112845</i>
    <i name="e_0_energy">    -14.22112845</i>
   </energy>
  </scstep>
  <structure>
   <crystal>
    <varray name="basis" >
     <v>       8.00000000       0.00000000       0.00000000 </v>
     <v>       0.00000000       8.00000000       0.00000000 </v>
     <v>       0.00000000       0.00000000       8.00000000 </v>
    </varray>
    <i name="volume">    512.00000000</i>
    <varray name="rec_basis" >
     <v>       0.12500000       0.00000000       0.00000000 </v>
     <v>       0.00000000       0.12500000       0.00000000 </v>
     <v>       0.00000000       0.00000000       0.12500000 </v>
    </varray>
   </crystal>
   <varray name="positions" >
    <v>       0.49999995       0.49991994       0.49999983 </v>
    <v>       0.59551964       0.57385871       0.50000228 </v>
    <v>       0.40448117       0.57386222       0.50000045 </v>
   </varray>
  </structure>
  <varray name="forces" >
   <v>      -0.00046858      -0.33229316       0.00000126 </v>
   <v>       0.22811224       0.16632873       0.00000086 </v>
   <v>      -0.22764366       0.16596442      -0.00000212 </v>
  </varray>
  <varray name="stress" >
   <v>       0.88725387       0.00086293      -0.00001596 </v>
   <v>       0.00086265       0.26829454       0.00003934 </v>
   <v>      -0.00001535       0.00001885      -0.23109948 </v>
  </varray>
  <energy>
   <i name="e_fr_energy">    -14.22112845</i>
   <i name="e_wo_entrp">    -14.22112845</i>
   <i name="e_0_energy">      0.00000000</i>
   <i name="kinetic">      0.00985672</i>
   <i name="nosepot">      0.00000000</i>
   <i name="nosekinetic">      0.00000000</i>
   <i name="total">    -14.21127173</i>
  </energy>
 </calculation>
 <calculation>
  <scstep>
   <time name="diag">    0.06    0.06</time>
   <time name="diis">    0.17    0.17</time>
   <time name="orth">    0.00    0.00</time>
   <time name="total">    0.70    0.70</time>
   <energy>
    <i name="alphaZ">      0.43793512</i>
    <i name="ewald">     25.23159771</i>
    <i name="hartreedc">   -420.77224598</i>
    <i name="XCdc">     34.10970459</i>
    <i name="pawpsdc">    326.48679637</i>
    <i name="pawaedc">   -328.64220728</i>
    <i name="eentropy">      0.00000000</i>
    <i name="bandstr">   -108.40292412</i>
    <i name="atom">    457.32929435</i>
    <i name="e_fr_energy">    -14.22204925</i>
    <i name="e_wo_entrp">    -14.22204925</i>
    <i name="e_0_energy">    -14.22204925</i>
   </energy>
  </scstep>
  <scstep>
   <time name="diag">    0.07    0.07</time>
   <time name="diis">    0.17    0.17</time>
   <time name="orth">    0.00    0.00</time>
   <time name="total">    0.69    0.69</time>
   <energy>
    <i name="e_fr_energy">    -14.22204442</i>
    <i name="e_wo_entrp">    -14.22204442</i>
    <i name="e_0_energy">    -14.22204442</i>
   </energy>
  </scstep>
  <scstep>
   <time name="diag">    0.06    0.06</time>
   <time name="diis">    0.16    0.16</time>
   <time name="orth">    0.00    0.00</time>
   <time name="total">    0.66    0.66</time>
   <energy>
    <i name="e_fr_energy">    -14.22204457</i>
    <i name="e_wo_entrp">    -14.22204457</i>
    <i name="e_0_energy">    -14.22204457</i>
   </energy>
  </scstep>
  <scstep>
   <time name="diag">    0.07    0.07</time>
   <time name="diis">    0.17    0.17</time>
   <time name="orth">    0.00    0.00</time>
   <time name="total">    0.55    0.56</time>
   <energy>
    <i name="alphaZ">      0.43793512</i>
    <i name="ewald">     25.23159771</i>
    <i name="hartreedc">   -420.72830426</i>
    <i name="XCdc">     34.10714495</i>
    <i name="pawpsdc">    326.41754616</i>
    <i name="pawaedc">   -328.57224160</i>
    <i name="eentropy">      0.00000000</i>
    <i name="bandstr">   -108.44501707</i>
    <i name="atom">    457.32929435</i>
    <i name="e_fr_energy">    -14.22204465</i>
    <i name="e_wo_entrp">    -14.22204465</i>
    <i name="e_0_energy">    -14.22204465</i>
   </energy>
  </scstep>
  <structure>
   <crystal>
    <varray name="basis" >
     <v>       8.00000000       0.00000000       0.00000000 </v>
     <v>       0.00000000       8.00000000       0.00000000 </v>
     <v>       0.00000000       0.00000000       8.00000000 </v>
    </varray>
    <i name="volume">    512.00000000</i>
    <varray name="rec_basis" >
     <v>       0.12500000       0.00000000       0.00000000 </v>
     <v>       0.00000000       0.12500000       0.00000000 </v>
     <v>       0.00000000       0.00000000       0.12500000 </v>
    </varray>
   </crystal>
   <varray name="positions" >
    <v>       0.49999994       0.49990293       0.49999981 </v>
    <v>       0.59571445       0.57399461       0.50000256 </v>
    <v>       0.40428654       0.57399851       0.50000050 </v>
   </varray>
  </structure>
  <varray name="forces" >
   <v>      -0.00049735      -0.22013855      -0.00000909 </v>
   <v>       0.14453813       0.11026129       0.00000607 </v>
   <v>      -0.14404078       0.10987726       0.00000302 </v>
  </varray>
  <varray name="stress" >
   <v>       0.45911274       0.00090720      -0.00002139 </v>
   <v>       0.00090627       0.03168337       0.00002507 </v>
   <v>      -0.00002183       0.00000441      -0.26067009 </v>
  </varray>
  <energy>
   <i name="e_fr_energy">    -14.22204465</i>
   <i name="e_wo_entrp">    -14.22204465</i>
   <i name="e_0_energy">      0.00000000</i>
   <i name="kinetic">      0.01077039</i>
   <i name="nosepot">      0.00000000</i>
   <i name="nosekinetic">      0.00000000</i>
   <i name="total">    -14.21127426</i>
  </energy>
 </calculation>
 <calculation>
  <scstep>
   <time name="diag">    0.08    0.08</time>
   <time name="diis">    0.22    0.22</time>
   <time name="orth">    0.00    0.00</time>
   <time name="total">    0.79    0.79</time>
   <energy>
    <i name="alphaZ">      0.43793512</i>
    <i name="ewald">     24.83828970</i>
    <i name="hartreedc">   -420.39699810</i>
    <i name="XCdc">     34.09002105</i>
    <i name="pawpsdc">    325.81087637</i>
    <i name="pawaedc">   -327.96237554</i>
    <i name="eentropy">      0.00000000</i>
    <i name="bandstr">   -108.36962427</i>
    <i name="atom">    457.32929435</i>
    <i name="e_fr_energy">    -14.22258132</i>
    <i name="e_wo_entrp">    -14.22258132</i>
    <i name="e_0_energy">    -14.22258132</i>
   </energy>
  </scstep>
  <scstep>
   <time name="diag">    0.08    0.08</time>
   <time name="diis">    0.23    0.23</time>
   <time name="orth">    0.00    0.00</time>
   <time name="total">    0.87    0.87</time>
   <energy>
    <i name="e_fr_energy">    -14.22258034</i>
    <i name="e_wo_entrp">    -14.22258034</i>
    <i name="e_0_energy">    -14.22258034</i>
   </energy>
  </scstep>
  <scstep>
   <time name="diag">    0.08    0.08</time>
   <time name="diis">    0.20    0.20</time>
   <time name="orth">    0.01    0.02</time>
   <time name="total">    0.83    0.84</time>
   <energy>
    <i name="e_fr_energy">    -14.22258019</i>
    <i name="e_wo_entrp">    -14.22258019</i>
    <i name="e_0_energy">    -14.22258019</i>
   </energy>
  </scstep>
  <scstep>
   <time name="diag">    0.08    0.08</time>
   <time name="diis">    0.20    0.20</time>
   <time name="orth">    0.00    0.00</time>
   <time name="total">    0.64    0.65</time>
   <energy>
    <i name="alphaZ">      0.43793512</i>
    <i name="ewald">     24.83828970</i>
    <i name="hartreedc">   -420.41866076</i>
    <i name="XCdc">     34.09129450</i>
    <i name="pawpsdc">    325.83786186</i>
    <i name="pawaedc">   -327.98988723</i>
    <i name="eentropy">      0.00000000</i>
    <i name="bandstr">   -108.34870780</i>
    <i name="atom">    457.32929435</i>
    <i name="e_fr_energy">    -14.22258026</i>
    <i name="e_wo_entrp">    -14.22258026</i>
    <i name="e_0_energy">    -14.22258026</i>
   </energy>
  </scstep>
  <structure>
   <crystal>
    <varray name="basis" >
     <v>       8.00000000       0.00000000       0.00000000 </v>
     <v>       0.00000000       8.00000000       0.00000000 </v>
     <v>       0.00000000       0.00000000       8.00000000 </v>
    </varray>
    <i name="volume">    512.00000000</i>
    <varray name="rec_basis" >
     <v>       0.12500000       0.00000000       0.00000000 </v>
     <v>       0.00000000       0.12500000       0.00000000 </v>
     <v>       0.00000000       0.00000000       0.12500000 </v>
    </varray>
   </crystal>
   <varray name="positions" >
    <v>       0.49999993       0.49988530       0.49999979 </v>
    <v>       0.59591578       0.57413550       0.50000285 </v>
    <v>       0.40408541       0.57413976       0.50000056 </v>
   </varray>
  </structure>
  <varray name="forces" >
   <v>      -0.00049635      -0.10680016      -0.00002003 </v>
   <v>       0.05961582       0.05359699       0.00000925 </v>
   <v>      -0.05911947       0.05320318       0.00001078 </v>
  </varray>
  <varray name="stress" >
   <v>       0.06290212       0.00092093      -0.00000507 </v>
   <v>       0.00092108      -0.16722556      -0.00001074 </v>
   <v>      -0.00000507      -0.00003159      -0.25181684 </v>
  </varray>
  <energy>
   <i name="e_fr_energy">    -14.22258026</i>
   <i name="e_wo_entrp">    -14.22258026</i>
   <i name="e_0_energy">      0.00000000</i>
   <i name="kinetic">      0.01130329</i>
   <i name="nosepot">      0.00000000</i>
   <i name="nosekinetic">      0.00000000</i>
   <i name="total">    -14.21127697</i>
  </energy>
 </calculation>
 <calculation>
  <scstep>
   <time name="diag">    0.08    0.08</time>
   <time name="diis">    0.22    0.22</time>
   <time name="orth">    0.00    0.00</time>
   <time name="total">    0.78    0.78</time>
   <energy>
    <i name="alphaZ">      0.43793512</i>
    <i name="ewald">     24.44092319</i>
    <i name="hartreedc">   -420.11282292</i>
    <i name="XCdc">     34.07570256</i>
    <i name="pawpsdc">    325.25801411</i>
    <i name="pawaedc">   -327.40757915</i>
    <i name="eentropy">      0.00000000</i>
    <i name="bandstr">   -108.24416256</i>
    <i name="atom">    457.32929435</i>
    <i name="e_fr_energy">    -14.22269529</i>
    <i name="e_wo_entrp">    -14.22269529</i>
    <i name="e_0_energy">    -14.22269529</i>
   </energy>
  </scstep>
  <scstep>
   <time name="diag">    0.08    0.08</time>
   <time name="diis">    0.21    0.21</time>
   <time name="orth">    0.00    0.00</time>
   <time name="total">    0.84    0.93</time>
   <energy>
    <i name="e_fr_energy">    -14.22269579</i>
    <i name="e_wo_entrp">    -14.22269579</i>
    <i name="e_0_energy">    -14.22269579</i>
   </energy>
  </scstep>
  <scstep>
   <time name="diag">    0.08    0.08</time>
   <time name="diis">    0.21    0.21</time>
   <time name="orth">    0.00    0.00</time>
   <time name="total">    0.86    0.91</time>
   <energy>
    <i name="e_fr_energy">    -14.22269580</i>
    <i name="e_wo_entrp">    -14.22269580</i>
    <i name="e_0_energy">    -14.22269580</i>
   </energy>
  </scstep>
  <scstep>
   <time name="diag">    0.08    0.08</time>
   <time name="diis">    0.20    0.20</time>
   <time name="orth">    0.00    0.00</time>
   <time name="total">    0.64    0.64</time>
   <energy>
    <i name="alphaZ">      0.43793512</i>
    <i name="ewald">     24.44092319</i>
    <i name="hartreedc">   -420.11620834</i>
    <i name="XCdc">     34.07587566</i>
    <i name="pawpsdc">    325.27360632</i>
    <i name="pawaedc">   -327.42301627</i>
    <i name="eentropy">      0.00000000</i>
    <i name="bandstr">   -108.24110569</i>
    <i name="atom">    457.32929435</i>
    <i name="e_fr_energy">    -14.22269566</i>
    <i name="e_wo_entrp">    -14.22269566</i>
    <i name="e_0_energy">    -14.22269566</i>
   </energy>
  </scstep>
  <structure>
   <crystal>
    <varray name="basis" >
     <v>       8.00000000       0.00000000       0.00000000 </v>
     <v>       0.00000000       8.00000000       0.00000000 </v>
     <v>       0.00000000       0.00000000       8.00000000 </v>
    </varray>
    <i name="volume">    512.00000000</i>
    <varray name="rec_basis" >
     <v>       0.12500000       0.00000000       0.00000000 </v>
     <v>       0.00000000       0.12500000       0.00000000 </v>
     <v>       0.00000000       0.00000000       0.12500000 </v>
    </varray>
   </crystal>
   <varray name="positions" >
    <v>       0.49999991       0.49986736       0.49999977 </v>
    <v>       0.59611981       0.57427880       0.50000314 </v>
    <v>       0.40388161       0.57428340       0.50000062 </v>
   </varray>
  </structure>
  <varray name="forces" >
   <v>      -0.00049950       0.00592664       0.00002823 </v>
   <v>      -0.02584659      -0.00276282      -0.00001852 </v>
   <v>       0.02634609      -0.00316382      -0.00000971 </v>
  </varray>
  <varray name="stress" >
   <v>      -0.32208885       0.00094234       0.00002703 </v>
   <v>       0.00094201      -0.35656643      -0.00004491 </v>
   <v>       0.00002737      -0.00006515      -0.22658433 </v>
  </varray>
  <energy>
   <i name="e_fr_energy">    -14.22269566</i>
   <i name="e_wo_entrp">    -14.22269566</i>
   <i name="e_0_energy">      0.00000000</i>
   <i name="kinetic">      0.01142214</i>
   <i name="nosepot">      0.00000000</i>
   <i name="nosekinetic">      0.00000000</i>
   <i name="total">    -14.21127351</i>
  </energy>
 </calculation>
 <calculation>
  <scstep>
   <time name="diag">    0.08    0.08</time>
   <time name="diis">    0.22    0.22</time>
   <time name="orth">    0.00    0.00</time>
   <time name="total">    0.77    0.77</time>
   <energy>
    <i name="alphaZ">      0.43793512</i>
    <i name="ewald">     24.04686473</i>
    <i name="hartreedc">   -419.83163188</i>
    <i name="XCdc">     34.06145701</i>
    <i name="pawpsdc">    324.74992808</i>
    <i name="pawaedc">   -326.89700880</i>
    <i name="eentropy">      0.00000000</i>
    <i name="bandstr">   -108.11923238</i>
    <i name="atom">    457.32929435</i>
    <i name="e_fr_energy">    -14.22239377</i>
    <i name="e_wo_entrp">    -14.22239377</i>
    <i name="e_0_energy">    -14.22239377</i>
   </energy>
  </scstep>
  <scstep>
   <time name="diag">    0.08    0.08</time>
   <time name="diis">    0.22    0.22</time>
   <time name="orth">    0.00    0.00</time>
   <time name="total">    0.88    0.89</time>
   <energy>
    <i name="e_fr_energy">    -14.22239260</i>
    <i name="e_wo_entrp">    -14.22239260</i>
    <i name="e_0_energy">    -14.22239260</i>
   </energy>
  </scstep>
  <scstep>
   <time name="diag">    0.08    0.08</time>
   <time name="diis">    0.20    0.20</time>
   <time name="orth">    0.00    0.00</time>
   <time name="total">    0.86    0.87</time>
   <energy>
    <i name="e_fr_energy">    -14.22239246</i>
    <i name="e_wo_entrp">    -14.22239246</i>
    <i name="e_0_energy">    -14.22239246</i>
   </energy>
  </scstep>
  <scstep>
   <time name="diag">    0.08    0.08</time>
   <time name="diis">    0.21    0.21</time>
   <time name="orth">    0.00    0.00</time>
   <time name="total">    0.66    0.67</time>
   <energy>
    <i name="alphaZ">      0.43793512</i>
    <i name="ewald">     24.04686473</i>
    <i name="hartreedc">   -419.80151107</i>
    <i name="XCdc">     34.05976712</i>
    <i name="pawpsdc">    324.69597302</i>
    <i name="pawaedc">   -326.84269549</i>
    <i name="eentropy">      0.00000000</i>
    <i name="bandstr">   -108.14802032</i>
    <i name="atom">    457.32929435</i>
    <i name="e_fr_energy">    -14.22239255</i>
    <i name="e_wo_entrp">    -14.22239255</i>
    <i name="e_0_energy">    -14.22239255</i>
   </energy>
  </scstep>
  <structure>
   <crystal>
    <varray name="basis" >
     <v>       8.00000000       0.00000000       0.00000000 </v>
     <v>       0.00000000       8.00000000       0.00000000 </v>
     <v>       0.00000000       0.00000000       8.00000000 </v>
    </varray>
    <i name="volume">    512.00000000</i>
    <varray name="rec_basis" >
     <v>       0.12500000       0.00000000       0.00000000 </v>
     <v>       0.00000000       0.12500000       0.00000000 </v>
     <v>       0.00000000       0.00000000       0.12500000 </v>
    </varray>
   </crystal>
   <varray name="positions" >
    <v>       0.49999990       0.49984944       0.49999974 </v>
    <v>       0.59632266       0.57442198       0.50000342 </v>
    <v>       0.40367900       0.57442691       0.50000068 </v>
   </varray>
  </structure>
  <varray name="forces" >
   <v>      -0.00047533       0.11971406      -0.00000942 </v>
   <v>      -0.10928348      -0.05966094      -0.00000535 </v>
   <v>       0.10975881      -0.06005312       0.00001477 </v>
  </varray>
  <varray name="stress" >
   <v>      -0.75668926       0.00091329       0.00008337 </v>
   <v>       0.00091474      -0.59624591      -0.00006381 </v>
   <v>       0.00008398      -0.00008492      -0.25911699 </v>
  </varray>
  <energy>
   <i name="e_fr_energy">    -14.22239255</i>
   <i name="e_wo_entrp">    -14.22239255</i>
   <i name="e_0_energy">      0.00000000</i>
   <i name="kinetic">      0.01112253</i>
   <i name="nosepot">      0.00000000</i>
   <i name="nosekinetic">      0.00000000</i>
   <i name="total">    -14.21127002</i>
  </energy>
 </calculation>
 <calculation>
  <scstep>
   <time name="diag">    0.08    0.08</time>
   <time name="diis">    0.22    0.22</time>
   <time name="orth">    0.00    0.00</time>
   <time name="total">    0.78    0.78</time>
   <energy>
    <i name="alphaZ">      0.43793512</i>
    <i name="ewald">     23.66326534</i>
    <i name="hartreedc">   -419.47607058</i>
    <i name="XCdc">     34.04302299</i>
    <i name="pawpsdc">    324.10722527</i>
    <i name="pawaedc">   -326.25098777</i>
    <i name="eentropy">      0.00000000</i>
    <i name="bandstr">   -108.07538393</i>
    <i name="atom">    457.32929435</i>
    <i name="e_fr_energy">    -14.22169921</i>
    <i name="e_wo_entrp">    -14.22169921</i>
    <i name="e_0_energy">    -14.22169921</i>
   </energy>
  </scstep>
  <scstep>
   <time name="diag">    0.08    0.08</time>
   <time name="diis">    0.22    0.22</time>
   <time name="orth">    0.00    0.00</time>
   <time name="total">    0.88    0.88</time>
   <energy>
    <i name="e_fr_energy">    -14.22169723</i>
    <i name="e_wo_entrp">    -14.22169723</i>
    <i name="e_0_energy">    -14.22169723</i>
   </energy>
  </scstep>
  <scstep>
   <time name="diag">    0.08    0.08</time>
   <time name="diis">    0.21    0.21</time>
   <time name="orth">    0.00    0.00</time>
   <time name="total">    0.86    0.86</time>
   <energy>
    <i name="e_fr_energy">    -14.22169734</i>
    <i name="e_wo_entrp">    -14.22169734</i>
    <i name="e_0_energy">    -14.22169734</i>
   </energy>
  </scstep>
  <scstep>
   <time name="diag">    0.08    0.08</time>
   <time name="diis">    0.21    0.21</time>
   <time name="orth">    0.00    0.00</time>
   <time name="total">    0.64    0.65</time>
   <energy>
    <i name="alphaZ">      0.43793512</i>
    <i name="ewald">     23.66326534</i>
    <i name="hartreedc">   -419.50581097</i>
    <i name="XCdc">     34.04472043</i>
    <i name="pawpsdc">    324.15376964</i>
    <i name="pawaedc">   -326.29798330</i>
    <i name="eentropy">      0.00000000</i>
    <i name="bandstr">   -108.04688799</i>
    <i name="atom">    457.32929435</i>
    <i name="e_fr_energy">    -14.22169739</i>
    <i name="e_wo_entrp">    -14.22169739</i>
    <i name="e_0_energy">    -14.22169739</i>
   </energy>
  </scstep>
  <structure>
   <crystal>
    <varray name="basis" >
     <v>       8.00000000       0.00000000       0.00000000 </v>
     <v>       0.00000000       8.00000000       0.00000000 </v>
     <v>       0.00000000       0.00000000       8.00000000 </v>
    </varray>
    <i name="volume">    512.00000000</i>
    <varray name="rec_basis" >
     <v>       0.12500000       0.00000000       0.00000000 </v>
     <v>       0.00000000       0.12500000       0.00000000 </v>
     <v>       0.00000000       0.00000000       0.12500000 </v>
    </varray>
   </crystal>
   <varray name="positions" >
    <v>       0.49999988       0.49983186       0.49999972 </v>
    <v>       0.59652058       0.57456246       0.50000371 </v>
    <v>       0.40348134       0.57456770       0.50000073 </v>
   </varray>
  </structure>
  <varray name="forces" >
   <v>      -0.00045914       0.22630378       0.00000314 </v>
   <v>      -0.18789433      -0.11296264      -0.00001104 </v>
   <v>       0.18835346      -0.11334114       0.00000790 </v>
  </varray>
  <varray name="stress" >
   <v>      -1.11603563       0.00089275       0.00005244 </v>
   <v>       0.00089309      -0.77711984      -0.00002411 </v>
   <v>       0.00005311      -0.00004504      -0.23732313 </v>
  </varray>
  <energy>
   <i name="e_fr_energy">    -14.22169739</i>
   <i name="e_wo_entrp">    -14.22169739</i>
   <i name="e_0_energy">      0.00000000</i>
   <i name="kinetic">      0.01043563</i>
   <i name="nosepot">      0.00000000</i>
   <i name="nosekinetic">      0.00000000</i>
   <i name="total">    -14.21126176</i>
  </energy>
 </calculation>
 <calculation>
  <scstep>
   <time name="diag">    0.08    0.08</time>
   <time name="diis">    0.22    0.22</time>
   <time name="orth">    0.00    0.00</time>
   <time name="total">    0.77    0.77</time>
   <energy>
    <i name="alphaZ">      0.43793512</i>
    <i name="ewald">     23.29673039</i>
    <i name="hartreedc">   -419.23677378</i>
    <i name="XCdc">     34.03114237</i>
    <i name="pawpsdc">    323.66186809</i>
    <i name="pawaedc">   -325.80394188</i>
    <i name="eentropy">      0.00000000</i>
    <i name="bandstr">   -107.93692554</i>
    <i name="atom">    457.32929435</i>
    <i name="e_fr_energy">    -14.22067087</i>
    <i name="e_wo_entrp">    -14.22067087</i>
    <i name="e_0_energy">    -14.22067087</i>
   </energy>
  </scstep>
  <scstep>
   <time name="diag">    0.08    0.08</time>
   <time name="diis">    0.22    0.22</time>
   <time name="orth">    0.00    0.00</time>
   <time name="total">    0.89    0.89</time>
   <energy>
    <i name="e_fr_energy">    -14.22067000</i>
    <i name="e_wo_entrp">    -14.22067000</i>
    <i name="e_0_energy">    -14.22067000</i>
   </energy>
  </scstep>
  <scstep>
   <time name="diag">    0.07    0.08</time>
   <time name="diis">    0.21    0.21</time>
   <time name="orth">    0.00    0.00</time>
   <time name="total">    0.87    0.88</time>
   <energy>
    <i name="e_fr_energy">    -14.22067000</i>
    <i name="e_wo_entrp">    -14.22067000</i>
    <i name="e_0_energy">    -14.22067000</i>
   </energy>
  </scstep>
  <scstep>
   <time name="diag">    0.08    0.08</time>
   <time name="diis">    0.17    0.17</time>
   <time name="orth">    0.00    0.00</time>
   <time name="total">    0.60    0.61</time>
   <energy>
    <i name="alphaZ">      0.43793512</i>
    <i name="ewald">     23.29673039</i>
    <i name="hartreedc">   -419.21350927</i>
    <i name="XCdc">     34.02979217</i>
    <i name="pawpsdc">    323.62524018</i>
    <i name="pawaedc">   -325.76690060</i>
    <i name="eentropy">      0.00000000</i>
    <i name="bandstr">   -107.95925232</i>
    <i name="atom">    457.32929435</i>
    <i name="e_fr_energy">    -14.22066999</i>
    <i name="e_wo_entrp">    -14.22066999</i>
    <i name="e_0_energy">    -14.22066999</i>
   </energy>
  </scstep>
  <structure>
   <crystal>
    <varray name="basis" >
     <v>       8.00000000       0.00000000       0.00000000 </v>
     <v>       0.00000000       8.00000000       0.00000000 </v>
     <v>       0.00000000       0.00000000       8.00000000 </v>
    </varray>
    <i name="volume">    512.00000000</i>
    <varray name="rec_basis" >
     <v>       0.12500000       0.00000000       0.00000000 </v>
     <v>       0.00000000       0.12500000       0.00000000 </v>
     <v>       0.00000000       0.00000000       0.12500000 </v>
    </varray>
   </crystal>
   <varray name="positions" >
    <v>       0.49999986       0.49981492       0.49999970 </v>
    <v>       0.59671002       0.57469784       0.50000399 </v>
    <v>       0.40329219       0.57470338       0.50000079 </v>
   </varray>
  </structure>
  <varray name="forces" >
   <v>      -0.00042347       0.32932940       0.00003080 </v>
   <v>      -0.26429087      -0.16448582      -0.00001854 </v>
   <v>       0.26471434      -0.16484358      -0.00001226 </v>
  </varray>
  <varray name="stress" >
   <v>      -1.50676630       0.00083346      -0.00007465 </v>
   <v>       0.00083326      -0.99034310      -0.00000319 </v>
   <v>      -0.00007362      -0.00002461      -0.25806371 </v>
  </varray>
  <energy>
   <i name="e_fr_energy">    -14.22066999</i>
   <i name="e_wo_entrp">    -14.22066999</i>
   <i name="e_0_energy">      0.00000000</i>
   <i name="kinetic">      0.00941590</i>
   <i name="nosepot">      0.00000000</i>
   <i name="nosekinetic">      0.00000000</i>
   <i name="total">    -14.21125409</i>
  </energy>
 </calculation>
 <calculation>
  <scstep>
   <time name="diag">    0.07    0.08</time>
   <time name="diis">    0.22    0.22</time>
   <time name="orth">    0.00    0.00</time>
   <time name="total">    0.77    0.77</time>
   <energy>
    <i name="alphaZ">      0.43793512</i>
    <i name="ewald">     22.95356298</i>
    <i name="hartreedc">   -418.92805451</i>
    <i name="XCdc">     34.01513243</i>
    <i name="pawpsdc">    323.11766238</i>
    <i name="pawaedc">   -325.25682406</i>
    <i name="eentropy">      0.00000000</i>
    <i name="bandstr">   -107.88809081</i>
    <i name="atom">    457.32929435</i>
    <i name="e_fr_energy">    -14.21938214</i>
    <i name="e_wo_entrp">    -14.21938214</i>
    <i name="e_0_energy">    -14.21938214</i>
   </energy>
  </scstep>
  <scstep>
   <time name="diag">    0.08    0.08</time>
   <time name="diis">    0.22    0.22</time>
   <time name="orth">    0.00    0.00</time>
   <time name="total">    0.87    0.87</time>
   <energy>
    <i name="e_fr_energy">    -14.21938063</i>
    <i name="e_wo_entrp">    -14.21938063</i>
    <i name="e_0_energy">    -14.21938063</i>
   </energy>
  </scstep>
  <scstep>
   <time name="diag">    0.08    0.08</time>
   <time name="diis">    0.20    0.20</time>
   <time name="orth">    0.00    0.00</time>
   <time name="total">    0.86    0.87</time>
   <energy>
    <i name="e_fr_energy">    -14.21938079</i>
    <i name="e_wo_entrp">    -14.21938079</i>
    <i name="e_0_energy">    -14.21938079</i>
   </energy>
  </scstep>
  <scstep>
   <time name="diag">    0.08    0.08</time>
   <time name="diis">    0.20    0.20</time>
   <time name="orth">    0.00    0.00</time>
   <time name="total">    0.63    0.64</time>
   <energy>
    <i name="alphaZ">      0.43793512</i>
    <i name="ewald">     22.95356298</i>
    <i name="hartreedc">   -418.95286428</i>
    <i name="XCdc">     34.01655185</i>
    <i name="pawpsdc">    323.15174047</i>
    <i name="pawaedc">   -325.29128712</i>
    <i name="eentropy">      0.00000000</i>
    <i name="bandstr">   -107.86431432</i>
    <i name="atom">    457.32929435</i>
    <i name="e_fr_energy">    -14.21938097</i>
    <i name="e_wo_entrp">    -14.21938097</i>
    <i name="e_0_energy">    -14.21938097</i>
   </energy>
  </scstep>
  <structure>
   <crystal>
    <varray name="basis" >
     <v>       8.00000000       0.00000000       0.00000000 </v>
     <v>       0.00000000       8.00000000       0.00000000 </v>
     <v>       0.00000000       0.00000000       8.00000000 </v>
    </varray>
    <i name="volume">    512.00000000</i>
    <varray name="rec_basis" >
     <v>       0.12500000       0.00000000       0.00000000 </v>
     <v>       0.00000000       0.12500000       0.00000000 </v>
     <v>       0.00000000       0.00000000       0.12500000 </v>
    </varray>
   </crystal>
   <varray name="positions" >
    <v>       0.49999984       0.49979891       0.49999968 </v>
    <v>       0.59688752       0.57482580       0.50000428 </v>
    <v>       0.40311500       0.57483161       0.50000085 </v>
   </varray>
  </structure>
  <varray name="forces" >
   <v>      -0.00039125       0.42278187      -0.00001481 </v>
   <v>      -0.33601898      -0.21122094       0.00000243 </v>
   <v>       0.33641023      -0.21156093       0.00001238 </v>
  </varray>
  <varray name="stress" >
   <v>      -1.83898852       0.00077556      -0.00010387 </v>
   <v>       0.00077540      -1.15594421      -0.00000739 </v>
   <v>      -0.00010350      -0.00002844      -0.24340353 </v>
  </varray>
  <energy>
   <i name="e_fr_energy">    -14.21938097</i>
   <i name="e_wo_entrp">    -14.21938097</i>
   <i name="e_0_energy">      0.00000000</i>
   <i name="kinetic">      0.00813576</i>
   <i name="nosepot">      0.00000000</i>
   <i name="nosekinetic">      0.00000000</i>
   <i name="total">    -14.21124521</i>
  </energy>
 </calculation>
 <calculation>
  <scstep>
   <time name="diag">    0.08    0.08</time>
   <time name="diis">    0.22    0.22</time>
   <time name="orth">    0.00    0.00</time>
   <time name="total">    0.77    0.77</time>
   <energy>
    <i name="alphaZ">      0.43793512</i>
    <i name="ewald">     22.63951539</i>
    <i name="hartreedc">   -418.73121572</i>
    <i name="XCdc">     34.00540024</i>
    <i name="pawpsdc">    322.74427299</i>
    <i name="pawaedc">   -324.88212927</i>
    <i name="eentropy">      0.00000000</i>
    <i name="bandstr">   -107.76099983</i>
    <i name="atom">    457.32929435</i>
    <i name="e_fr_energy">    -14.21792672</i>
[...]
   <v>      -0.40513886      -0.26527808      -0.00828749 </v>
   <v>       0.40693843      -0.26852534      -0.00792132 </v>
  </varray>
  <varray name="stress" >
   <v>      -2.18105069       0.00575830       0.00023722 </v>
   <v>       0.00575761      -1.35948289      -0.03157130 </v>
   <v>       0.00023692      -0.03159254      -0.24139573 </v>
  </varray>
  <energy>
   <i name="e_fr_energy">    -14.21771808</i>
   <i name="e_wo_entrp">    -14.21771808</i>
   <i name="e_0_energy">      0.00000000</i>
   <i name="kinetic">      0.00656503</i>
   <i name="nosepot">      0.00000000</i>
   <i name="nosekinetic">      0.00000000</i>
   <i name="total">    -14.21115304</i>
  </energy>
 </calculation>
 <calculation>
  <scstep>
   <time name="diag">    0.07    0.07</time>
   <time name="diis">    0.25    0.25</time>
   <time name="orth">    0.00    0.00</time>
   <time name="total">    0.76    0.76</time>
   <energy>
    <i name="alphaZ">      0.43793512</i>
    <i name="ewald">     22.31388631</i>
    <i name="hartreedc">   -418.45393274</i>
    <i name="XCdc">     33.99120883</i>
    <i name="pawpsdc">    322.24811832</i>
    <i name="pawaedc">   -324.38283315</i>
    <i name="eentropy">      0.00000000</i>
    <i name="bandstr">   -107.69986908</i>
    <i name="atom">    457.32929435</i>
    <i name="e_fr_energy">    -14.21619205</i>
    <i name="e_wo_entrp">    -14.21619205</i>
    <i name="e_0_energy">    -14.21619205</i>
   </energy>
  </scstep>
  <scstep>
   <time name="diag">    0.07    0.07</time>
   <time name="diis">    0.23    0.23</time>
   <time name="orth">    0.00    0.00</time>
   <time name="total">    0.83    0.89</time>
   <energy>
    <i name="e_fr_energy">    -14.21619215</i>
    <i name="e_wo_entrp">    -14.21619215</i>
    <i name="e_0_energy">    -14.21619215</i>
   </energy>
  </scstep>
  <scstep>
   <time name="diag">    0.07    0.07</time>
   <time name="diis">    0.24    0.24</time>
   <time name="orth">    0.00    0.00</time>
   <time name="total">    0.86    0.87</time>
   <energy>
    <i name="e_fr_energy">    -14.21619226</i>
    <i name="e_wo_entrp">    -14.21619226</i>
    <i name="e_0_energy">    -14.21619226</i>
   </energy>
  </scstep>
  <scstep>
   <time name="diag">    0.07    0.07</time>
   <time name="diis">    0.24    0.24</time>
   <time name="orth">    0.00    0.00</time>
   <time name="total">    0.66    0.67</time>
   <energy>
    <i name="alphaZ">      0.43793512</i>
    <i name="ewald">     22.31388631</i>
    <i name="hartreedc">   -418.44176969</i>
    <i name="XCdc">     33.99050041</i>
    <i name="pawpsdc">    322.22552338</i>
    <i name="pawaedc">   -324.36008142</i>
    <i name="eentropy">      0.00000000</i>
    <i name="bandstr">   -107.71148086</i>
    <i name="atom">    457.32929435</i>
    <i name="e_fr_energy">    -14.21619240</i>
    <i name="e_wo_entrp">    -14.21619240</i>
    <i name="e_0_energy">    -14.21619240</i>
   </energy>
  </scstep>
  <structure>
   <crystal>
    <varray name="basis" >
     <v>       8.00000000       0.00000000       0.00000000 </v>
     <v>       0.00000000       8.00000000       0.00000000 </v>
     <v>       0.00000000       0.00000000       8.00000000 </v>
    </varray>
    <i name="volume">    512.00000000</i>
    <varray name="rec_basis" >
     <v>       0.12500000       0.00000000       0.00000000 </v>
     <v>       0.00000000       0.12500000       0.00000000 </v>
     <v>       0.00000000       0.00000000       0.12500000 </v>
    </varray>
   </crystal>
   <varray name="positions" >
    <v>       0.49998780       0.49976447       0.49968627 </v>
    <v>       0.59724952       0.57495759       0.50246382 </v>
    <v>       0.40294561       0.57525091       0.50255578 </v>
   </varray>
  </structure>
  <varray name="forces" >
   <v>      -0.00107827       0.60860956       0.01984300 </v>
   <v>      -0.46052997      -0.30234006      -0.00993595 </v>
   <v>       0.46160824      -0.30626950      -0.00990705 </v>
  </varray>
  <varray name="stress" >
   <v>      -2.45020141       0.00755951       0.00054588 </v>
   <v>       0.00756006      -1.50431472      -0.03768786 </v>
   <v>       0.00054614      -0.03770905      -0.24129192 </v>
  </varray>
  <energy>
   <i name="e_fr_energy">    -14.21619240</i>
   <i name="e_wo_entrp">    -14.21619240</i>
   <i name="e_0_energy">      0.00000000</i>
   <i name="kinetic">      0.00504820</i>
   <i name="nosepot">      0.00000000</i>
   <i name="nosekinetic">      0.00000000</i>
   <i name="total">    -14.21114420</i>
  </energy>
 </calculation>
 <calculation>
  <scstep>
   <time name="diag">    0.07    0.07</time>
   <time name="diis">    0.25    0.25</time>
   <time name="orth">    0.00    0.00</time>
   <time name="total">    0.76    0.77</time>
   <energy>
    <i name="alphaZ">      0.43793512</i>
    <i name="ewald">     22.07816839</i>
    <i name="hartreedc">   -418.25491743</i>
    <i name="XCdc">     33.98098000</i>
    <i name="pawpsdc">    321.88566175</i>
    <i name="pawaedc">   -324.01854214</i>
    <i name="eentropy">      0.00000000</i>
    <i name="bandstr">   -107.65330639</i>
    <i name="atom">    457.32929435</i>
    <i name="e_fr_energy">    -14.21472636</i>
    <i name="e_wo_entrp">    -14.21472636</i>
    <i name="e_0_energy">    -14.21472636</i>
   </energy>
  </scstep>
  <scstep>
   <time name="diag">    0.07    0.07</time>
   <time name="diis">    0.24    0.24</time>
   <time name="orth">    0.00    0.00</time>
   <time name="total">    0.87    0.88</time>
   <energy>
    <i name="e_fr_energy">    -14.21472657</i>
    <i name="e_wo_entrp">    -14.21472657</i>
    <i name="e_0_energy">    -14.21472657</i>
   </energy>
  </scstep>
  <scstep>
   <time name="diag">    0.07    0.07</time>
   <time name="diis">    0.24    0.24</time>
   <time name="orth">    0.00    0.00</time>
   <time name="total">    0.85    0.86</time>
   <energy>
    <i name="e_fr_energy">    -14.21472661</i>
    <i name="e_wo_entrp">    -14.21472661</i>
    <i name="e_0_energy">    -14.21472661</i>
   </energy>
  </scstep>
  <scstep>
   <time name="diag">    0.07    0.07</time>
   <time name="diis">    0.24    0.24</time>
   <time name="orth">    0.00    0.00</time>
   <time name="total">    0.66    0.76</time>
   <energy>
    <i name="alphaZ">      0.43793512</i>
    <i name="ewald">     22.07816839</i>
    <i name="hartreedc">   -418.25786496</i>
    <i name="XCdc">     33.98116341</i>
    <i name="pawpsdc">    321.89365093</i>
    <i name="pawaedc">   -324.02657541</i>
    <i name="eentropy">      0.00000000</i>
    <i name="bandstr">   -107.65049850</i>
    <i name="atom">    457.32929435</i>
    <i name="e_fr_energy">    -14.21472667</i>
    <i name="e_wo_entrp">    -14.21472667</i>
    <i name="e_0_energy">    -14.21472667</i>
   </energy>
  </scstep>
  <structure>
   <crystal>
    <varray name="basis" >
     <v>       8.00000000       0.00000000       0.00000000 </v>
     <v>       0.00000000       8.00000000       0.00000000 </v>
     <v>       0.00000000       0.00000000       8.00000000 </v>
    </varray>
    <i name="volume">    512.00000000</i>
    <varray name="rec_basis" >
     <v>       0.12500000       0.00000000       0.00000000 </v>
     <v>       0.00000000       0.12500000       0.00000000 </v>
     <v>       0.00000000       0.00000000       0.12500000 </v>
    </varray>
   </crystal>
   <varray name="positions" >
    <v>       0.49998778       0.49975283       0.49968373 </v>
    <v>       0.59736878       0.57505000       0.50248359 </v>
    <v>       0.40282672       0.57534477       0.50257672 </v>
   </varray>
  </structure>
  <varray name="forces" >
   <v>      -0.00122599       0.67215453       0.02297271 </v>
   <v>      -0.50641064      -0.33392966      -0.01127527 </v>
   <v>       0.50763664      -0.33822488      -0.01169744 </v>
  </varray>
  <varray name="stress" >
   <v>      -2.68037304       0.00769208       0.00117283 </v>
   <v>       0.00769161      -1.62953252      -0.04253244 </v>
   <v>       0.00117334      -0.04255362      -0.24285327 </v>
  </varray>
  <energy>
   <i name="e_fr_energy">    -14.21472667</i>
   <i name="e_wo_entrp">    -14.21472667</i>
   <i name="e_0_energy">      0.00000000</i>
   <i name="kinetic">      0.00359131</i>
   <i name="nosepot">      0.00000000</i>
   <i name="nosekinetic">      0.00000000</i>
   <i name="total">    -14.21113536</i>
  </energy>
 </calculation>
 <calculation>
  <scstep>
   <time name="diag">    0.07    0.07</time>
   <time name="diis">    0.24    0.25</time>
   <time name="orth">    0.00    0.00</time>
   <time name="total">    0.77    0.78</time>
   <energy>
    <i name="alphaZ">      0.43793512</i>
    <i name="ewald">     21.88543752</i>
    <i name="hartreedc">   -418.10451345</i>
    <i name="XCdc">     33.97336912</i>
    <i name="pawpsdc">    321.62015228</i>
    <i name="pawaedc">   -323.75168052</i>
    <i name="eentropy">      0.00000000</i>
    <i name="bandstr">   -107.60341457</i>
    <i name="atom">    457.32929435</i>
    <i name="e_fr_energy">    -14.21342015</i>
    <i name="e_wo_entrp">    -14.21342015</i>
    <i name="e_0_energy">    -14.21342015</i>
   </energy>
  </scstep>
  <scstep>
   <time name="diag">    0.07    0.07</time>
   <time name="diis">    0.24    0.24</time>
   <time name="orth">    0.00    0.00</time>
   <time name="total">    0.85    0.86</time>
   <energy>
    <i name="e_fr_energy">    -14.21342063</i>
    <i name="e_wo_entrp">    -14.21342063</i>
    <i name="e_0_energy">    -14.21342063</i>
   </energy>
  </scstep>
  <scstep>
   <time name="diag">    0.07    0.07</time>
   <time name="diis">    0.21    0.21</time>
   <time name="orth">    0.00    0.00</time>
   <time name="total">    0.84    0.85</time>
   <energy>
    <i name="e_fr_energy">    -14.21342067</i>
    <i name="e_wo_entrp">    -14.21342067</i>
    <i name="e_0_energy">    -14.21342067</i>
   </energy>
  </scstep>
  <scstep>
   <time name="diag">    0.07    0.07</time>
   <time name="diis">    0.24    0.24</time>
   <time name="orth">    0.00    0.00</time>
   <time name="total">    0.66    0.67</time>
   <energy>
    <i name="alphaZ">      0.43793512</i>
    <i name="ewald">     21.88543752</i>
    <i name="hartreedc">   -418.10624956</i>
    <i name="XCdc">     33.97345759</i>
    <i name="pawpsdc">    321.62247565</i>
    <i name="pawaedc">   -323.75410411</i>
    <i name="eentropy">      0.00000000</i>
    <i name="bandstr">   -107.60166730</i>
    <i name="atom">    457.32929435</i>
    <i name="e_fr_energy">    -14.21342074</i>
    <i name="e_wo_entrp">    -14.21342074</i>
    <i name="e_0_energy">    -14.21342074</i>
   </energy>
  </scstep>
  <structure>
   <crystal>
    <varray name="basis" >
     <v>       8.00000000       0.00000000       0.00000000 </v>
     <v>       0.00000000       8.00000000       0.00000000 </v>
     <v>       0.00000000       0.00000000       8.00000000 </v>
    </varray>
    <i name="volume">    512.00000000</i>
    <varray name="rec_basis" >
     <v>       0.12500000       0.00000000       0.00000000 </v>
     <v>       0.00000000       0.12500000       0.00000000 </v>
     <v>       0.00000000       0.00000000       0.12500000 </v>
    </varray>
   </crystal>
   <varray name="positions" >
    <v>       0.49998775       0.49974308       0.49968125 </v>
    <v>       0.59746517       0.57512733       0.50250285 </v>
    <v>       0.40273075       0.57542337       0.50259713 </v>
   </varray>
  </structure>
  <varray name="forces" >
   <v>      -0.00184358       0.72616916       0.02328450 </v>
   <v>      -0.54350620      -0.36121430      -0.01148784 </v>
   <v>       0.54534977      -0.36495486      -0.01179666 </v>
  </varray>
  <varray name="stress" >
   <v>      -2.86205747       0.00797249       0.00143256 </v>
   <v>       0.00797202      -1.72551350      -0.04570846 </v>
   <v>       0.00143261      -0.04573078      -0.23762161 </v>
  </varray>
  <energy>
   <i name="e_fr_energy">    -14.21342074</i>
   <i name="e_wo_entrp">    -14.21342074</i>
   <i name="e_0_energy">      0.00000000</i>
   <i name="kinetic">      0.00229303</i>
   <i name="nosepot">      0.00000000</i>
   <i name="nosekinetic">      0.00000000</i>
   <i name="total">    -14.21112771</i>
  </energy>
 </calculation>
 <calculation>
  <scstep>
   <time name="diag">    0.07    0.07</time>
   <time name="diis">    0.24    0.24</time>
   <time name="orth">    0.00    0.00</time>
   <time name="total">    0.78    0.78</time>
   <energy>
    <i name="alphaZ">      0.43793512</i>
    <i name="ewald">     21.73863797</i>
    <i name="hartreedc">   -417.99368883</i>
    <i name="XCdc">     33.96776986</i>
    <i name="pawpsdc">    321.42433923</i>
    <i name="pawaedc">   -323.55503428</i>
    <i name="eentropy">      0.00000000</i>
    <i name="bandstr">   -107.56161549</i>
    <i name="atom">    457.32929435</i>
    <i name="e_fr_energy">    -14.21236208</i>
    <i name="e_wo_entrp">    -14.21236208</i>
    <i name="e_0_energy">    -14.21236208</i>
   </energy>
  </scstep>
  <scstep>
   <time name="diag">    0.07    0.07</time>
   <time name="diis">    0.24    0.24</time>
   <time name="orth">    0.00    0.00</time>
   <time name="total">    0.84    0.85</time>
   <energy>
    <i name="e_fr_energy">    -14.21236231</i>
    <i name="e_wo_entrp">    -14.21236231</i>
    <i name="e_0_energy">    -14.21236231</i>
   </energy>
  </scstep>
  <scstep>
   <time name="diag">    0.07    0.07</time>
   <time name="diis">    0.24    0.24</time>
   <time name="orth">    0.00    0.00</time>
   <time name="total">    0.85    0.86</time>
   <energy>
    <i name="e_fr_energy">    -14.21236247</i>
    <i name="e_wo_entrp">    -14.21236247</i>
    <i name="e_0_energy">    -14.21236247</i>
   </energy>
  </scstep>
  <scstep>
   <time name="diag">    0.07    0.07</time>
   <time name="diis">    0.24    0.24</time>
   <time name="orth">    0.00    0.00</time>
   <time name="total">    0.66    0.67</time>
   <energy>
    <i name="alphaZ">      0.43793512</i>
    <i name="ewald">     21.73863797</i>
    <i name="hartreedc">   -417.99125491</i>
    <i name="XCdc">     33.96763200</i>
    <i name="pawpsdc">    321.42048294</i>
    <i name="pawaedc">   -323.55115772</i>
    <i name="eentropy">      0.00000000</i>
    <i name="bandstr">   -107.56393229</i>
    <i name="atom">    457.32929435</i>
    <i name="e_fr_energy">    -14.21236254</i>
    <i name="e_wo_entrp">    -14.21236254</i>
    <i name="e_0_energy">    -14.21236254</i>
   </energy>
  </scstep>
  <structure>
   <crystal>
    <varray name="basis" >
     <v>       8.00000000       0.00000000       0.00000000 </v>
     <v>       0.00000000       8.00000000       0.00000000 </v>
     <v>       0.00000000       0.00000000       8.00000000 </v>
    </varray>
    <i name="volume">    512.00000000</i>
    <varray name="rec_basis" >
     <v>       0.12500000       0.00000000       0.00000000 </v>
     <v>       0.00000000       0.12500000       0.00000000 </v>
     <v>       0.00000000       0.00000000       0.12500000 </v>
    </varray>
   </crystal>
   <varray name="positions" >
    <v>       0.49998772       0.49973539       0.49967884 </v>
    <v>       0.59753702       0.57518835       0.50252159 </v>
    <v>       0.40265940       0.57548547       0.50261700 </v>
   </varray>
  </structure>
  <varray name="forces" >
   <v>      -0.00239464       0.76461527       0.02556976 </v>
   <v>      -0.57165657      -0.38078254      -0.01281710 </v>
   <v>       0.57405120      -0.38383273      -0.01275266 </v>
  </varray>
  <varray name="stress" >
   <v>      -3.00203027       0.00693915      -0.00077697 </v>
   <v>       0.00693869      -1.80478500      -0.04773071 </v>
   <v>      -0.00077600      -0.04775244      -0.23583699 </v>
  </varray>
  <energy>
   <i name="e_fr_energy">    -14.21236254</i>
   <i name="e_wo_entrp">    -14.21236254</i>
   <i name="e_0_energy">      0.00000000</i>
   <i name="kinetic">      0.00124016</i>
   <i name="nosepot">      0.00000000</i>
   <i name="nosekinetic">      0.00000000</i>
   <i name="total">    -14.21112238</i>
  </energy>
 </calculation>
 <calculation>
  <scstep>
   <time name="diag">    0.07    0.07</time>
   <time name="diis">    0.24    0.25</time>
   <time name="orth">    0.00    0.00</time>
   <time name="total">    0.77    0.77</time>
   <energy>
    <i name="alphaZ">      0.43793512</i>
    <i name="ewald">     21.63993358</i>
    <i name="hartreedc">   -417.91459280</i>
    <i name="XCdc">     33.96377697</i>
    <i name="pawpsdc">    321.29099831</i>
    <i name="pawaedc">   -323.42114403</i>
    <i name="eentropy">      0.00000000</i>
    <i name="bandstr">   -107.53782096</i>
    <i name="atom">    457.32929435</i>
    <i name="e_fr_energy">    -14.21161947</i>
    <i name="e_wo_entrp">    -14.21161947</i>
    <i name="e_0_energy">    -14.21161947</i>
   </energy>
  </scstep>
  <scstep>
   <time name="diag">    0.07    0.07</time>
   <time name="diis">    0.24    0.24</time>
   <time name="orth">    0.00    0.00</time>
   <time name="total">    0.85    0.86</time>
   <energy>
    <i name="e_fr_energy">    -14.21162023</i>
    <i name="e_wo_entrp">    -14.21162023</i>
    <i name="e_0_energy">    -14.21162023</i>
   </energy>
  </scstep>
  <scstep>
   <time name="diag">    0.07    0.07</time>
   <time name="diis">    0.24    0.24</time>
   <time name="orth">    0.00    0.00</time>
   <time name="total">    0.87    0.87</time>
   <energy>
    <i name="e_fr_energy">    -14.21162049</i>
    <i name="e_wo_entrp">    -14.21162049</i>
    <i name="e_0_energy">    -14.21162049</i>
   </energy>
  </scstep>
  <scstep>
   <time name="diag">    0.07    0.07</time>
   <time name="diis">    0.24    0.24</time>
   <time name="orth">    0.00    0.00</time>
   <time name="total">    0.65    0.66</time>
   <energy>
    <i name="alphaZ">      0.43793512</i>
    <i name="ewald">     21.63993358</i>
    <i name="hartreedc">   -417.90872492</i>
    <i name="XCdc">     33.96341126</i>
    <i name="pawpsdc">    321.27658309</i>
    <i name="pawaedc">   -323.40651725</i>
    <i name="eentropy">      0.00000000</i>
    <i name="bandstr">   -107.54353582</i>
    <i name="atom">    457.32929435</i>
    <i name="e_fr_energy">    -14.21162058</i>
    <i name="e_wo_entrp">    -14.21162058</i>
    <i name="e_0_energy">    -14.21162058</i>
   </energy>
  </scstep>
  <structure>
   <crystal>
    <varray name="basis" >
     <v>       8.00000000       0.00000000       0.00000000 </v>
     <v>       0.00000000       8.00000000       0.00000000 </v>
     <v>       0.00000000       0.00000000       8.00000000 </v>
    </varray>
    <i name="volume">    512.00000000</i>
    <varray name="rec_basis" >
     <v>       0.12500000       0.00000000       0.00000000 </v>
     <v>       0.00000000       0.12500000       0.00000000 </v>
     <v>       0.00000000       0.00000000       0.12500000 </v>
    </varray>
   </crystal>
   <varray name="positions" >
    <v>       0.49998769       0.49972985       0.49967650 </v>
    <v>       0.59758305       0.57523217       0.50253976 </v>
    <v>       0.40261399       0.57553025       0.50263630 </v>
   </varray>
  </structure>
  <varray name="forces" >
   <v>      -0.00284693       0.79238999       0.02716092 </v>
   <v>      -0.58996498      -0.39444560      -0.01338704 </v>
   <v>       0.59281192      -0.39794439      -0.01377388 </v>
  </varray>
  <varray name="stress" >
   <v>      -3.10007105       0.00690820       0.00047261 </v>
   <v>       0.00690821      -1.86209895      -0.04996545 </v>
   <v>       0.00047324      -0.04998648      -0.24418670 </v>
  </varray>
  <energy>
   <i name="e_fr_energy">    -14.21162058</i>
   <i name="e_wo_entrp">    -14.21162058</i>
   <i name="e_0_energy">      0.00000000</i>
   <i name="kinetic">      0.00050249</i>
   <i name="nosepot">      0.00000000</i>
   <i name="nosekinetic">      0.00000000</i>
   <i name="total">    -14.21111809</i>
  </energy>
 </calculation>
