    3    3  100    1
  0.3333333E+03  0.1000000E-08  0.1000000E-08  0.1000000E-08  0.1935040E-15
   1.0000000000000000E-004
  CAR 
 H2O                                     
    8    1    8

  0.1262379E-14  0.1262379E-14  0.1262379E-14  0.1000000E+01
   1      -25.2450
   2      -13.0283
   3       -9.1856
   4       -7.1179
   5       -0.9721
   6        0.5270
   7        0.7336
   8        1.1197
